# vtk DataFile Version 2.0
Unstructured Grid
ASCII
DATASET UNSTRUCTURED_GRID
POINTS 729 double
0.000000 0.000000 0.000000
0.000000 0.000000 0.050000
0.000000 0.000000 0.100000
0.000000 0.000000 0.150000
0.000000 0.000000 0.200000
0.000000 0.050000 0.000000
0.000000 0.050000 0.050000
0.000000 0.050000 0.100000
0.000000 0.050000 0.150000
0.000000 0.050000 0.200000
0.000000 0.100000 0.000000
0.000000 0.100000 0.050000
0.000000 0.100000 0.100000
0.000000 0.100000 0.150000
0.000000 0.100000 0.200000
0.000000 0.150000 0.000000
0.000000 0.150000 0.050000
0.000000 0.150000 0.100000
0.000000 0.150000 0.150000
0.000000 0.150000 0.200000
0.000000 0.200000 0.000000
0.000000 0.200000 0.050000
0.000000 0.200000 0.100000
0.000000 0.200000 0.150000
0.000000 0.200000 0.200000
0.026610 -0.019914 -0.022948
0.030580 -0.022775 0.039036
0.032965 -0.022773 0.100000
0.030580 -0.022775 0.160964
0.026610 -0.019914 0.222948
0.030588 0.040044 -0.023619
0.036661 0.039288 0.039047
0.037170 0.038971 0.100000
0.036661 0.039288 0.160953
0.030588 0.040044 0.223619
0.031377 0.100000 -0.024716
0.037093 0.100000 0.038505
0.038518 0.100000 0.100000
0.037093 0.100000 0.161495
0.031377 0.100000 0.224716
0.030588 0.159956 -0.023619
0.036661 0.160711 0.039047
0.037170 0.161029 0.100000
0.036661 0.160711 0.160953
0.030588 0.159956 0.223619
0.026610 0.219914 -0.022948
0.030580 0.222775 0.039036
0.032965 0.222773 0.100000
0.030580 0.222775 0.160964
0.026610 0.219914 0.222948
0.054296 -0.020979 -0.029736
0.054128 -0.025872 0.033913
0.055900 -0.024320 0.100000
0.054128 -0.025872 0.166087
0.054296 -0.020979 0.229736
0.055518 0.036651 -0.025213
0.058178 0.035038 0.035251
0.058078 0.034786 0.100000
0.058178 0.035038 0.164749
0.055518 0.036651 0.225213
0.055481 0.100000 -0.029274
0.053974 0.100000 0.033522
0.057328 0.100000 0.100000
0.053974 0.100000 0.166478
0.055481 0.100000 0.229274
0.055518 0.163349 -0.025213
0.058178 0.164962 0.035251
0.058078 0.165214 0.100000
0.058178 0.164962 0.164749
0.055518 0.163349 0.225213
0.054296 0.220979 -0.029736
0.054128 0.225872 0.033913
0.055900 0.224320 0.100000
0.054128 0.225872 0.166087
0.054296 0.220979 0.229736
0.091815 -0.022522 -0.038514
0.083645 -0.039247 0.031791
0.085165 -0.033600 0.100000
0.083645 -0.039247 0.168209
0.091815 -0.022522 0.238514
0.091927 0.034946 -0.033274
0.082995 0.032545 0.032586
0.085815 0.031289 0.100000
0.082995 0.032545 0.167414
0.091927 0.034946 0.233274
0.088505 0.100000 -0.039344
0.073415 0.100000 0.030708
0.079483 0.100000 0.100000
0.073415 0.100000 0.169292
0.088505 0.100000 0.239344
0.091927 0.165054 -0.033274
0.082995 0.167455 0.032586
0.085815 0.168710 0.100000
0.082995 0.167455 0.167414
0.091927 0.165054 0.233274
0.091815 0.222522 -0.038514
0.083645 0.239247 0.031791
0.085165 0.233600 0.100000
0.083645 0.239247 0.168209
0.091815 0.222522 0.238514
0.150000 0.000000 0.000000
0.150000 0.000000 0.050000
0.150000 0.000000 0.100000
0.150000 0.000000 0.150000
0.150000 0.000000 0.200000
0.150000 0.050000 0.000000
0.150000 0.050000 0.050000
0.150000 0.050000 0.100000
0.150000 0.050000 0.150000
0.150000 0.050000 0.200000
0.150000 0.100000 0.000000
0.150000 0.100000 0.050000
0.150000 0.100000 0.100000
0.150000 0.100000 0.150000
0.150000 0.100000 0.200000
0.150000 0.150000 0.000000
0.150000 0.150000 0.050000
0.150000 0.150000 0.100000
0.150000 0.150000 0.150000
0.150000 0.150000 0.200000
0.150000 0.200000 0.000000
0.150000 0.200000 0.050000
0.150000 0.200000 0.100000
0.150000 0.200000 0.150000
0.150000 0.200000 0.200000
0.000000 0.050000 0.025000
0.023547 0.015861 0.008576
0.021371 0.042852 0.009097
0.024170 0.015224 0.041970
0.022661 0.041766 0.041732
0.036129 0.009356 0.039589
0.000000 0.025000 0.025000
0.000000 0.025000 0.050000
0.024801 -0.023342 0.041329
0.000000 0.025000 0.000000
0.000000 0.000000 0.025000
0.023345 -0.022427 0.007013
0.011794 -0.015993 -0.030546
0.015548 0.016018 -0.024238
0.030760 -0.021742 0.007004
0.030878 0.011089 -0.023234
0.014458 0.042655 -0.023029
0.035828 0.011158 0.006849
0.035134 0.040409 0.006240
0.048324 0.007837 0.004719
0.045084 -0.023242 0.004640
0.046212 0.008678 -0.025155
0.042428 -0.021841 -0.025438
0.055693 0.007895 -0.025501
0.046641 0.038024 -0.024988
0.048752 0.038403 0.003750
0.050259 0.008109 0.036099
0.051288 0.038147 0.035766
0.059421 0.036227 0.001444
0.045562 -0.022883 0.036134
0.058355 0.006084 0.034894
0.061049 0.007422 0.001093
0.057450 -0.024174 -0.000250
0.073927 0.008076 -0.006548
0.074213 0.034974 -0.008246
0.066336 0.004137 0.031929
0.066537 0.032622 0.031066
0.083676 0.002165 0.034003
0.062663 -0.033671 0.030794
0.069973 -0.028423 -0.009180
0.067268 -0.024354 -0.038303
0.068822 0.006538 -0.032670
0.091162 -0.031530 -0.007890
0.092428 0.009202 -0.032524
0.070494 0.033698 -0.034258
0.091328 0.008802 -0.004840
0.090246 0.036405 -0.007325
0.108670 0.013386 -0.013010
0.092069 -0.044280 -0.019607
0.115880 0.011716 -0.042565
0.114629 -0.021729 -0.068979
0.150000 0.025000 0.000000
0.113453 0.035356 -0.040980
0.106403 0.034896 -0.010467
0.091369 0.000472 0.034826
0.093792 0.028892 0.034368
0.150000 0.050000 0.025000
0.074081 -0.059608 0.030882
0.150000 0.025000 0.050000
0.150000 0.025000 0.025000
0.150000 0.000000 0.025000
0.000000 0.075000 0.000000
0.015113 0.100000 -0.028483
0.023829 0.100000 0.005724
0.014811 0.068565 -0.026138
0.023236 0.069815 0.007367
0.036900 0.100000 0.004399
0.000000 0.075000 0.025000
0.000000 0.100000 0.025000
0.024991 0.100000 0.041419
0.000000 0.075000 0.050000
0.024073 0.068231 0.041202
0.037114 0.069198 0.038531
0.036122 0.069645 0.004850
0.030950 0.068880 -0.025359
0.049085 0.069093 0.002393
0.051152 0.068373 0.035024
0.046870 0.068086 -0.027034
0.046718 0.100000 -0.025748
0.049415 0.100000 0.002573
0.055775 0.066269 -0.028403
0.059468 0.100000 -0.002365
0.050500 0.100000 0.035894
0.061734 0.065052 -0.002581
0.058001 0.065072 0.033321
0.065711 0.100000 -0.040142
0.069674 0.100000 -0.013212
0.068908 0.061571 -0.038378
0.074820 0.062046 -0.012879
0.083723 0.100000 -0.014699
0.057280 0.100000 0.030139
0.064945 0.061238 0.029640
0.082688 0.062921 0.031208
0.091553 0.064272 -0.012742
0.091984 0.062002 -0.039196
0.108387 0.056341 -0.021263
0.090634 0.056552 0.031713
0.115277 0.058597 -0.050782
0.109412 0.100000 -0.068022
0.091632 0.100000 -0.023801
0.150000 0.075000 0.000000
0.150000 0.100000 0.025000
0.073919 0.100000 0.029817
0.150000 0.075000 0.025000
0.150000 0.075000 0.050000
0.000000 0.150000 0.025000
0.023236 0.130185 0.007367
0.021371 0.157148 0.009097
0.024073 0.131769 0.041202
0.022661 0.158234 0.041732
0.037114 0.130802 0.038531
0.000000 0.125000 0.025000
0.000000 0.125000 0.050000
0.000000 0.125000 0.000000
0.014811 0.131435 -0.026138
0.030950 0.131120 -0.025359
0.014458 0.157345 -0.023029
0.036122 0.130355 0.004850
0.035134 0.159591 0.006240
0.049085 0.130907 0.002393
0.046870 0.131914 -0.027034
0.055775 0.133731 -0.028403
0.046641 0.161976 -0.024988
0.048752 0.161597 0.003750
0.051152 0.131627 0.035024
0.051288 0.161853 0.035766
0.059421 0.163773 0.001444
0.058001 0.134928 0.033321
0.061734 0.134948 -0.002581
0.074820 0.137954 -0.012879
0.074213 0.165026 -0.008246
0.064945 0.138762 0.029640
0.066537 0.167378 0.031066
0.082688 0.137079 0.031208
0.068908 0.138429 -0.038378
0.091984 0.137998 -0.039196
0.070494 0.166302 -0.034258
0.091553 0.135728 -0.012742
0.090246 0.163595 -0.007325
0.108387 0.143659 -0.021263
0.115277 0.141403 -0.050782
0.150000 0.125000 0.000000
0.113453 0.164644 -0.040980
0.106403 0.165104 -0.010467
0.090634 0.143448 0.031713
0.093792 0.171108 0.034368
0.150000 0.150000 0.025000
0.150000 0.125000 0.050000
0.150000 0.125000 0.025000
0.000000 0.175000 0.000000
0.011794 0.215993 -0.030546
0.023345 0.222427 0.007013
0.015548 0.183982 -0.024238
0.023547 0.184139 0.008576
0.030760 0.221742 0.007004
0.000000 0.175000 0.025000
0.000000 0.200000 0.025000
0.024801 0.223342 0.041329
0.000000 0.175000 0.050000
0.024170 0.184776 0.041970
0.036129 0.190644 0.039589
0.035828 0.188842 0.006849
0.030878 0.188911 -0.023234
0.048324 0.192163 0.004719
0.050259 0.191891 0.036099
0.046212 0.191322 -0.025155
0.042428 0.221841 -0.025438
0.045084 0.223242 0.004640
0.055693 0.192105 -0.025501
0.057450 0.224174 -0.000250
0.045562 0.222883 0.036134
0.061049 0.192578 0.001093
0.058355 0.193916 0.034894
0.067268 0.224354 -0.038303
0.069973 0.228423 -0.009180
0.068822 0.193462 -0.032670
0.073927 0.191924 -0.006548
0.091162 0.231530 -0.007890
0.062663 0.233671 0.030794
0.066336 0.195863 0.031929
0.083676 0.197835 0.034003
0.091328 0.191198 -0.004840
0.092428 0.190798 -0.032524
0.108670 0.186614 -0.013010
0.091369 0.199528 0.034826
0.115880 0.188284 -0.042565
0.114629 0.221729 -0.068979
0.092069 0.244280 -0.019607
0.150000 0.175000 0.000000
0.150000 0.200000 0.025000
0.074081 0.259608 0.030882
0.150000 0.175000 0.025000
0.150000 0.175000 0.050000
0.000000 0.025000 0.100000
0.023849 0.015173 0.075122
0.023683 0.013778 0.100000
0.023782 -0.024514 0.073577
0.022589 -0.021788 0.100000
0.031672 -0.023495 0.069450
0.000000 0.025000 0.075000
0.000000 0.000000 0.075000
0.000000 0.050000 0.075000
0.022232 0.041586 0.074222
0.037418 0.039142 0.070415
0.021313 0.041259 0.100000
0.037822 0.009371 0.070731
0.037745 0.008915 0.100000
0.052568 0.037507 0.067633
0.051935 0.006831 0.067395
0.059013 0.034500 0.069118
0.053009 0.037248 0.100000
0.052008 0.006904 0.100000
0.047662 -0.024157 0.067584
0.048070 -0.023791 0.100000
0.059125 0.006222 0.100000
0.056308 -0.025801 0.068439
0.060189 0.005453 0.068694
0.068521 0.004079 0.070329
0.069039 0.002823 0.100000
0.065148 -0.033167 0.069814
0.065978 -0.031645 0.100000
0.089634 -0.037169 0.067524
0.068956 0.031624 0.070258
0.087060 0.032661 0.070520
0.068647 0.030675 0.100000
0.088374 0.004343 0.070398
0.086467 0.002911 0.100000
0.105166 0.029934 0.079104
0.108248 0.009275 0.082295
0.150000 0.050000 0.075000
0.102963 0.029407 0.100000
0.103426 0.004745 0.100000
0.090978 -0.052971 0.075540
0.090899 -0.043267 0.100000
0.150000 0.025000 0.100000
0.150000 0.000000 0.075000
[...]
POINT_DATA 729
VECTORS displacement float
0.000000 0.000000 0.000000
0.000000 0.000000 0.000000
0.000000 0.000000 0.000000
0.000000 0.000000 0.000000
0.000000 0.000000 0.000000
0.000000 0.000000 0.000000
0.000000 0.000000 0.000000
0.000000 0.000000 0.000000
0.000000 0.000000 0.000000
0.000000 0.000000 0.000000
0.000000 0.000000 0.000000
0.000000 0.000000 0.000000
0.000000 0.000000 0.000000
0.000000 0.000000 0.000000
0.000000 0.000000 0.000000
0.000000 0.000000 0.000000
0.000000 0.000000 0.000000
0.000000 0.000000 0.000000
0.000000 0.000000 0.000000
0.000000 0.000000 0.000000
0.000000 0.000000 0.000000
0.000000 0.000000 0.000000
0.000000 0.000000 0.000000
0.000000 0.000000 0.000000
0.000000 0.000000 0.000000
-0.023390 -0.019914 -0.022948
-0.019420 -0.022775 -0.010964
-0.017035 -0.022773 -0.000000
-0.019420 -0.022775 0.010964
-0.023390 -0.019914 0.022948
-0.019412 -0.009956 -0.023619
-0.013339 -0.010712 -0.010953
-0.012830 -0.011029 -0.000000
-0.013339 -0.010712 0.010953
-0.019412 -0.009956 0.023619
-0.018623 0.000000 -0.024716
-0.012907 0.000000 -0.011495
-0.011482 0.000000 0.000000
-0.012907 -0.000000 0.011495
-0.018623 -0.000000 0.024716
-0.019412 0.009956 -0.023619
-0.013339 0.010712 -0.010953
-0.012830 0.011029 0.000000
-0.013339 0.010712 0.010953
-0.019412 0.009956 0.023619
-0.023390 0.019914 -0.022948
-0.019420 0.022775 -0.010964
-0.017035 0.022773 0.000000
-0.019420 0.022775 0.010964
-0.023390 0.019914 0.022948
-0.045704 -0.020979 -0.029736
-0.045872 -0.025872 -0.016087
-0.044100 -0.024320 -0.000000
-0.045872 -0.025872 0.016087
-0.045704 -0.020979 0.029736
-0.044482 -0.013349 -0.025213
-0.041822 -0.014962 -0.014749
-0.041922 -0.015214 -0.000000
-0.041822 -0.014962 0.014749
-0.044482 -0.013349 0.025213
-0.044519 0.000000 -0.029274
-0.046026 0.000000 -0.016478
-0.042672 0.000000 0.000000
-0.046026 0.000000 0.016478
-0.044519 -0.000000 0.029274
-0.044482 0.013349 -0.025213
-0.041822 0.014962 -0.014749
-0.041922 0.015214 -0.000000
-0.041822 0.014962 0.014749
-0.044482 0.013349 0.025213
-0.045704 0.020979 -0.029736
-0.045872 0.025872 -0.016087
-0.044100 0.024320 0.000000
-0.045872 0.025872 0.016087
-0.045704 0.020979 0.029736
-0.058185 -0.022522 -0.038514
-0.066355 -0.039247 -0.018209
-0.064835 -0.033600 0.000000
-0.066355 -0.039247 0.018209
-0.058185 -0.022522 0.038514
-0.058073 -0.015054 -0.033274
-0.067005 -0.017455 -0.017414
-0.064185 -0.018711 0.000000
-0.067005 -0.017455 0.017414
-0.058073 -0.015054 0.033274
-0.061495 -0.000000 -0.039344
-0.076585 -0.000000 -0.019292
-0.070517 0.000000 0.000000
-0.076585 0.000000 0.019292
-0.061495 -0.000000 0.039344
-0.058073 0.015054 -0.033274
-0.067005 0.017455 -0.017414
-0.064185 0.018711 -0.000000
-0.067005 0.017455 0.017414
-0.058073 0.015054 0.033274
-0.058185 0.022522 -0.038514
-0.066355 0.039247 -0.018209
-0.064835 0.033600 -0.000000
-0.066355 0.039247 0.018209
-0.058185 0.022522 0.038514
-0.050000 0.000000 0.000000
-0.050000 0.000000 0.000000
-0.050000 0.000000 0.000000
-0.050000 0.000000 0.000000
-0.050000 0.000000 0.000000
-0.050000 0.000000 0.000000
-0.050000 0.000000 0.000000
-0.050000 0.000000 0.000000
-0.050000 0.000000 0.000000
-0.050000 0.000000 0.000000
-0.050000 0.000000 0.000000
-0.050000 0.000000 0.000000
-0.050000 0.000000 0.000000
-0.050000 0.000000 0.000000
-0.050000 0.000000 0.000000
-0.050000 0.000000 0.000000
-0.050000 0.000000 0.000000
-0.050000 0.000000 0.000000
-0.050000 0.000000 0.000000
-0.050000 0.000000 0.000000
-0.050000 0.000000 0.000000
-0.050000 0.000000 0.000000
-0.050000 0.000000 0.000000
-0.050000 0.000000 0.000000
-0.050000 0.000000 0.000000
0.000000 0.000000 0.000000
-0.001453 -0.009139 -0.016424
-0.003629 -0.007148 -0.015903
-0.000830 -0.009776 -0.008030
-0.002339 -0.008234 -0.008268
-0.013871 -0.015644 -0.010411
0.000000 0.000000 0.000000
0.000000 0.000000 0.000000
-0.000199 -0.023342 -0.008671
0.000000 0.000000 0.000000
0.000000 0.000000 0.000000
-0.001655 -0.022427 -0.017987
-0.013206 -0.015993 -0.030546
-0.009452 -0.008982 -0.024238
-0.019240 -0.021742 -0.017996
-0.019122 -0.013911 -0.023234
-0.010542 -0.007345 -0.023029
-0.014172 -0.013842 -0.018151
-0.014866 -0.009591 -0.018760
-0.026676 -0.017163 -0.020281
-0.029916 -0.023242 -0.020360
-0.028788 -0.016322 -0.025155
-0.032572 -0.021841 -0.025438
-0.044307 -0.017105 -0.025501
-0.028359 -0.011976 -0.024988
-0.026248 -0.011597 -0.021250
-0.024741 -0.016891 -0.013901
-0.023712 -0.011853 -0.014234
-0.040579 -0.013773 -0.023556
-0.029438 -0.022883 -0.013866
-0.041645 -0.018916 -0.015106
-0.038951 -0.017578 -0.023907
-0.042550 -0.024174 -0.025250
-0.051073 -0.016924 -0.031548
-0.050787 -0.015026 -0.033246
-0.058664 -0.020863 -0.018071
-0.058463 -0.017378 -0.018934
-0.066324 -0.022835 -0.015997
-0.062337 -0.033671 -0.019206
-0.055027 -0.028423 -0.034180
-0.057732 -0.024354 -0.038303
-0.056178 -0.018462 -0.032670
-0.058838 -0.031530 -0.032890
-0.057572 -0.015798 -0.032524
-0.054506 -0.016302 -0.034258
-0.058672 -0.016198 -0.029840
-0.059754 -0.013595 -0.032325
-0.066330 -0.011614 -0.038010
-0.082931 -0.044280 -0.044607
-0.059120 -0.013284 -0.042565
-0.060371 -0.021729 -0.068979
-0.050000 0.000000 0.000000
-0.061547 -0.014644 -0.040980
-0.068597 -0.015104 -0.035467
-0.083631 -0.024528 -0.015174
-0.081208 -0.021108 -0.015632
-0.050000 0.000000 0.000000
-0.100919 -0.059608 -0.019118
-0.050000 0.000000 0.000000
-0.050000 0.000000 0.000000
-0.050000 0.000000 0.000000
0.000000 0.000000 0.000000
-0.009887 -0.000000 -0.028483
-0.001171 0.000000 -0.019276
-0.010189 -0.006435 -0.026138
-0.001764 -0.005185 -0.017633
-0.013100 0.000000 -0.020601
0.000000 0.000000 0.000000
0.000000 0.000000 0.000000
-0.000009 0.000000 -0.008581
0.000000 0.000000 0.000000
-0.000927 -0.006769 -0.008797
-0.012886 -0.005802 -0.011469
-0.013878 -0.005355 -0.020150
-0.019050 -0.006120 -0.025359
-0.025915 -0.005907 -0.022607
-0.023848 -0.006627 -0.014976
-0.028130 -0.006914 -0.027034
-0.028282 0.000000 -0.025748
-0.025585 0.000000 -0.022427
-0.044225 -0.008731 -0.028403
-0.040532 0.000000 -0.027365
-0.024500 -0.000000 -0.014106
-0.038266 -0.009948 -0.027581
-0.041999 -0.009928 -0.016679
-0.059289 0.000000 -0.040142
-0.055326 -0.000000 -0.038212
-0.056092 -0.013429 -0.038378
-0.050180 -0.012954 -0.037879
-0.066277 -0.000000 -0.039699
-0.067720 0.000000 -0.019861
-0.060055 -0.013762 -0.020360
-0.067312 -0.012079 -0.018792
-0.058447 -0.010728 -0.037742
-0.058016 -0.012998 -0.039196
-0.066613 -0.018659 -0.046263
-0.084366 -0.018448 -0.018287
-0.059723 -0.016403 -0.050782
-0.065588 -0.000000 -0.068022
-0.083368 -0.000000 -0.048801
-0.050000 0.000000 0.000000
-0.050000 0.000000 0.000000
-0.101081 -0.000000 -0.020183
-0.050000 0.000000 0.000000
-0.050000 0.000000 0.000000
0.000000 0.000000 0.000000
-0.001764 0.005185 -0.017633
-0.003629 0.007148 -0.015903
-0.000927 0.006769 -0.008797
-0.002339 0.008234 -0.008268
-0.012886 0.005802 -0.011469
0.000000 0.000000 0.000000
0.000000 0.000000 0.000000
0.000000 0.000000 0.000000
-0.010189 0.006435 -0.026138
-0.019050 0.006120 -0.025359
-0.010542 0.007345 -0.023029
-0.013878 0.005355 -0.020150
-0.014866 0.009591 -0.018760
-0.025915 0.005907 -0.022607
-0.028130 0.006914 -0.027034
-0.044225 0.008731 -0.028403
-0.028359 0.011976 -0.024988
-0.026248 0.011597 -0.021250
-0.023848 0.006627 -0.014976
-0.023712 0.011853 -0.014234
-0.040579 0.013773 -0.023556
-0.041999 0.009928 -0.016679
-0.038266 0.009948 -0.027581
-0.050180 0.012954 -0.037879
-0.050787 0.015026 -0.033246
-0.060055 0.013762 -0.020360
-0.058463 0.017378 -0.018934
-0.067312 0.012079 -0.018792
-0.056092 0.013429 -0.038378
-0.058016 0.012998 -0.039196
-0.054506 0.016302 -0.034258
-0.058447 0.010728 -0.037742
-0.059754 0.013595 -0.032325
-0.066613 0.018659 -0.046263
-0.059723 0.016403 -0.050782
-0.050000 0.000000 0.000000
-0.061547 0.014644 -0.040980
-0.068597 0.015104 -0.035467
-0.084366 0.018448 -0.018287
-0.081208 0.021108 -0.015632
-0.050000 0.000000 0.000000
-0.050000 0.000000 0.000000
-0.050000 0.000000 0.000000
0.000000 0.000000 0.000000
-0.013206 0.015993 -0.030546
-0.001655 0.022427 -0.017987
-0.009452 0.008982 -0.024238
-0.001453 0.009139 -0.016424
-0.019240 0.021742 -0.017996
0.000000 0.000000 0.000000
0.000000 0.000000 0.000000
-0.000199 0.023342 -0.008671
0.000000 0.000000 0.000000
-0.000830 0.009776 -0.008030
-0.013871 0.015644 -0.010411
-0.014172 0.013842 -0.018151
-0.019122 0.013911 -0.023234
-0.026676 0.017163 -0.020281
-0.024741 0.016891 -0.013901
-0.028788 0.016322 -0.025155
-0.032572 0.021841 -0.025438
-0.029916 0.023242 -0.020360
-0.044307 0.017105 -0.025501
-0.042550 0.024174 -0.025250
-0.029438 0.022883 -0.013866
-0.038951 0.017578 -0.023907
-0.041645 0.018916 -0.015106
-0.057732 0.024354 -0.038303
-0.055027 0.028423 -0.034180
-0.056178 0.018462 -0.032670
-0.051073 0.016924 -0.031548
-0.058838 0.031530 -0.032890
-0.062337 0.033671 -0.019206
-0.058664 0.020863 -0.018071
-0.066324 0.022835 -0.015997
-0.058672 0.016198 -0.029840
-0.057572 0.015798 -0.032524
-0.066330 0.011614 -0.038010
-0.083631 0.024528 -0.015174
-0.059120 0.013284 -0.042565
-0.060371 0.021729 -0.068979
-0.082931 0.044280 -0.044607
-0.050000 0.000000 0.000000
-0.050000 0.000000 0.000000
-0.100919 0.059608 -0.019118
-0.050000 0.000000 0.000000
-0.050000 0.000000 0.000000
0.000000 0.000000 0.000000
-0.001151 -0.009827 0.000122
-0.001317 -0.011222 -0.000000
-0.001218 -0.024514 -0.001423
-0.002411 -0.021788 -0.000000
-0.018328 -0.023495 -0.005550
0.000000 0.000000 0.000000
0.000000 0.000000 0.000000
0.000000 0.000000 0.000000
-0.002768 -0.008414 -0.000778
-0.012582 -0.010858 -0.004585
-0.003687 -0.008741 0.000000
-0.012178 -0.015629 -0.004269
-0.012255 -0.016085 -0.000000
-0.022432 -0.012493 -0.007367
-0.023065 -0.018169 -0.007605
-0.040987 -0.015500 -0.005882
-0.021991 -0.012752 -0.000000
-0.022992 -0.018096 -0.000000
-0.027338 -0.024157 -0.007416
-0.026930 -0.023791 0.000000
-0.040875 -0.018778 -0.000000
-0.043692 -0.025801 -0.006561
-0.039811 -0.019547 -0.006306
-0.056479 -0.020921 -0.004671
-0.055961 -0.022177 0.000000
-0.059852 -0.033167 -0.005186
-0.059022 -0.031645 0.000000
-0.060366 -0.037169 -0.007476
-0.056044 -0.018376 -0.004742
-0.062940 -0.017339 -0.004480
-0.056353 -0.019325 0.000000
-0.061626 -0.020657 -0.004602
-0.063532 -0.022089 0.000000
-0.069834 -0.020066 0.004104
-0.066752 -0.015725 0.007295
-0.050000 0.000000 0.000000
-0.072037 -0.020593 0.000000
-0.071574 -0.020255 0.000000
-0.084022 -0.052971 0.000540
-0.084101 -0.043267 0.000000
-0.050000 0.000000 0.000000
-0.050000 0.000000 0.000000
-0.050000 0.000000 0.000000
-0.001547 -0.007032 -0.000250
0.000000 0.000000 0.000000
0.000000 0.000000 0.000000
0.000000 0.000000 0.000000
-0.000796 0.000000 -0.000308
-0.001892 -0.006780 0.000000
-0.001135 0.000000 0.000000
-0.011719 0.000000 -0.005062
-0.011958 -0.006425 -0.000000
-0.011687 -0.006122 -0.004700
-0.021877 -0.006666 -0.007449
-0.022290 0.000000 -0.006709
-0.022103 -0.006894 -0.000000
-0.021903 0.000000 0.000000
-0.041881 -0.009895 -0.000000
-0.039906 -0.010279 -0.005761
-0.042290 0.000000 -0.005869
-0.057561 -0.015622 -0.003031
-0.062202 0.000000 -0.004401
-0.056907 -0.014844 -0.000000
-0.061255 0.000000 0.000000
-0.069124 0.000000 -0.005609
-0.065287 -0.014167 -0.000000
-0.062427 -0.013782 -0.003458
-0.066944 -0.024552 0.009111
-0.084496 0.000000 0.001343
-0.073708 -0.020178 0.000000
-0.085322 -0.000000 -0.000000
-0.050000 0.000000 0.000000
-0.050000 0.000000 0.000000
-0.050000 0.000000 0.000000
0.000000 0.000000 0.000000
-0.001547 0.007032 -0.000250
-0.001892 0.006780 0.000000
0.000000 0.000000 0.000000
0.000000 0.000000 0.000000
-0.002768 0.008414 -0.000778
-0.012582 0.010858 -0.004585
-0.003687 0.008741 0.000000
-0.011687 0.006122 -0.004700
-0.011958 0.006425 -0.000000
-0.022432 0.012493 -0.007367
-0.021877 0.006666 -0.007449
-0.040987 0.015500 -0.005882
-0.021991 0.012752 0.000000
-0.022103 0.006894 -0.000000
-0.041881 0.009895 -0.000000
-0.039906 0.010279 -0.005761
-0.057561 0.015622 -0.003031
-0.056907 0.014844 0.000000
-0.056044 0.018376 -0.004742
-0.062940 0.017339 -0.004480
-0.056353 0.019325 0.000000
-0.062427 0.013782 -0.003458
-0.065287 0.014167 -0.000000
-0.069834 0.020066 0.004104
-0.066944 0.024552 0.009111
-0.050000 0.000000 0.000000
-0.072037 0.020593 -0.000000
-0.073708 0.020178 -0.000000
-0.050000 0.000000 0.000000
-0.050000 0.000000 0.000000
-0.001151 0.009827 0.000122
0.000000 0.000000 0.000000
0.000000 0.000000 0.000000
0.000000 0.000000 0.000000
-0.001218 0.024514 -0.001423
-0.001317 0.011222 0.000000
-0.002411 0.021788 0.000000
-0.018328 0.023495 -0.005550
-0.012255 0.016085 0.000000
-0.012178 0.015629 -0.004269
-0.023065 0.018169 -0.007605
-0.027338 0.024157 -0.007416
-0.022992 0.018096 0.000000
-0.026930 0.023791 0.000000
-0.040875 0.018778 0.000000
-0.039811 0.019547 -0.006306
-0.043692 0.025801 -0.006561
-0.056479 0.020921 -0.004671
-0.059852 0.033167 -0.005186
-0.055961 0.022177 0.000000
-0.059022 0.031645 -0.000000
-0.060366 0.037169 -0.007476
-0.063532 0.022089 -0.000000
-0.061626 0.020657 -0.004602
-0.066752 0.015725 0.007295
-0.084022 0.052971 0.000540
-0.071574 0.020255 -0.000000
-0.084101 0.043267 -0.000000
-0.050000 0.000000 0.000000
-0.050000 0.000000 0.000000
-0.050000 0.000000 0.000000
0.000000 0.000000 0.000000
-0.001151 -0.009827 -0.000122
-0.002768 -0.008414 0.000778
-0.000830 -0.009776 0.008030
-0.002339 -0.008234 0.008268
-0.013871 -0.015644 0.010411
0.000000 0.000000 0.000000
0.000000 0.000000 0.000000
-0.000199 -0.023342 0.008671
0.000000 0.000000 0.000000
-0.001218 -0.024514 0.001423
-0.018328 -0.023495 0.005550
-0.012178 -0.015629 0.004269
-0.012582 -0.010858 0.004585
-0.023065 -0.018169 0.007605
-0.027338 -0.024157 0.007416
-0.022432 -0.012493 0.007367
-0.024741 -0.016891 0.013901
-0.023712 -0.011853 0.014234
-0.040987 -0.015500 0.005882
-0.029438 -0.022883 0.013866
-0.041645 -0.018916 0.015106
-0.039811 -0.019547 0.006306
-0.043692 -0.025801 0.006561
-0.056479 -0.020921 0.004671
-0.056044 -0.018376 0.004742
-0.058664 -0.020863 0.018071
-0.058463 -0.017378 0.018934
-0.066324 -0.022835 0.015997
-0.062337 -0.033671 0.019206
-0.059852 -0.033167 0.005186
-0.060366 -0.037169 0.007476
-0.061626 -0.020657 0.004602
-0.062940 -0.017339 0.004480
-0.066752 -0.015725 -0.007295
-0.084022 -0.052971 -0.000540
-0.069834 -0.020066 -0.004104
-0.083631 -0.024528 0.015174
-0.081208 -0.021108 0.015632
-0.050000 0.000000 0.000000
-0.100919 -0.059608 0.019118
-0.050000 0.000000 0.000000
-0.050000 0.000000 0.000000
-0.050000 0.000000 0.000000
-0.000796 0.000000 0.000308
-0.001547 -0.007032 0.000250
-0.011719 0.000000 0.005062
0.000000 0.000000 0.000000
0.000000 0.000000 0.000000
-0.000009 0.000000 0.008581
0.000000 0.000000 0.000000
-0.000927 -0.006769 0.008797
-0.012886 -0.005802 0.011469
-0.011687 -0.006122 0.004700
-0.021877 -0.006666 0.007449
-0.023848 -0.006627 0.014976
-0.022290 0.000000 0.006709
-0.042290 0.000000 0.005869
-0.024500 0.000000 0.014106
-0.039906 -0.010279 0.005761
-0.041999 -0.009928 0.016679
-0.062202 0.000000 0.004401
-0.057561 -0.015622 0.003031
-0.069124 0.000000 0.005609
-0.067720 -0.000000 0.019861
-0.060055 -0.013762 0.020360
-0.067312 -0.012079 0.018792
-0.062427 -0.013782 0.003458
-0.066944 -0.024552 -0.009111
-0.084366 -0.018448 0.018287
-0.084496 -0.000000 -0.001343
-0.050000 0.000000 0.000000
-0.101081 -0.000000 0.020183
-0.050000 0.000000 0.000000
-0.050000 0.000000 0.000000
0.000000 0.000000 0.000000
-0.001547 0.007032 0.000250
-0.002768 0.008414 0.000778
-0.000927 0.006769 0.008797
-0.002339 0.008234 0.008268
-0.012886 0.005802 0.011469
0.000000 0.000000 0.000000
0.000000 0.000000 0.000000
-0.011687 0.006122 0.004700
-0.012582 0.010858 0.004585
-0.021877 0.006666 0.007449
-0.022432 0.012493 0.007367
-0.023848 0.006627 0.014976
-0.023712 0.011853 0.014234
-0.040987 0.015500 0.005882
-0.041999 0.009928 0.016679
-0.039906 0.010279 0.005761
-0.057561 0.015622 0.003031
-0.056044 0.018376 0.004742
-0.060055 0.013762 0.020360
-0.058463 0.017378 0.018934
-0.067312 0.012079 0.018792
-0.062427 0.013782 0.003458
-0.062940 0.017339 0.004480
-0.066944 0.024552 -0.009111
-0.069834 0.020066 -0.004104
-0.084366 0.018448 0.018287
-0.081208 0.021108 0.015632
-0.050000 0.000000 0.000000
-0.050000 0.000000 0.000000
-0.050000 0.000000 0.000000
-0.001218 0.024514 0.001423
-0.001151 0.009827 -0.000122
-0.018328 0.023495 0.005550
0.000000 0.000000 0.000000
0.000000 0.000000 0.000000
-0.000199 0.023342 0.008671
0.000000 0.000000 0.000000
-0.000830 0.009776 0.008030
-0.013871 0.015644 0.010411
-0.012178 0.015629 0.004269
-0.023065 0.018169 0.007605
-0.024741 0.016891 0.013901
-0.027338 0.024157 0.007416
-0.043692 0.025801 0.006561
-0.029438 0.022883 0.013866
-0.039811 0.019547 0.006306
-0.041645 0.018916 0.015106
-0.059852 0.033167 0.005186
-0.056479 0.020921 0.004671
-0.060366 0.037169 0.007476
-0.062337 0.033671 0.019206
-0.058664 0.020863 0.018071
-0.066324 0.022835 0.015997
-0.061626 0.020657 0.004602
-0.066752 0.015725 -0.007295
-0.083631 0.024528 0.015174
-0.084022 0.052971 -0.000540
-0.050000 0.000000 0.000000
-0.100919 0.059608 0.019118
-0.050000 0.000000 0.000000
-0.050000 0.000000 0.000000
0.000000 0.000000 0.000000
-0.001453 -0.009139 0.016424
-0.009452 -0.008982 0.024238
-0.001655 -0.022427 0.017987
-0.013206 -0.015993 0.030546
-0.019240 -0.021742 0.017996
0.000000 0.000000 0.000000
0.000000 0.000000 0.000000
0.000000 0.000000 0.000000
-0.003629 -0.007148 0.015903
-0.014866 -0.009591 0.018760
-0.010542 -0.007345 0.023029
-0.014172 -0.013842 0.018151
-0.019122 -0.013911 0.023234
-0.026248 -0.011597 0.021250
-0.026676 -0.017163 0.020281
-0.040579 -0.013773 0.023556
-0.028359 -0.011976 0.024988
-0.028788 -0.016322 0.025155
-0.029916 -0.023242 0.020360
-0.032572 -0.021841 0.025438
-0.044307 -0.017105 0.025501
-0.042550 -0.024174 0.025250
-0.038951 -0.017578 0.023907
-0.051073 -0.016924 0.031548
-0.056178 -0.018462 0.032670
-0.055027 -0.028423 0.034180
-0.057732 -0.024354 0.038303
-0.058838 -0.031530 0.032890
-0.050787 -0.015026 0.033246
-0.059754 -0.013595 0.032325
-0.054506 -0.016302 0.034258
-0.058672 -0.016198 0.029840
-0.057572 -0.015798 0.032524
-0.068597 -0.015104 0.035467
-0.066330 -0.011614 0.038010
-0.050000 0.000000 0.000000
-0.061547 -0.014644 0.040980
-0.059120 -0.013284 0.042565
-0.082931 -0.044280 0.044607
-0.060371 -0.021729 0.068979
-0.050000 0.000000 0.000000
-0.050000 0.000000 0.000000
-0.050000 0.000000 0.000000
-0.001764 -0.005185 0.017633
0.000000 0.000000 0.000000
0.000000 0.000000 0.000000
0.000000 0.000000 0.000000
-0.001171 0.000000 0.019276
-0.010189 -0.006435 0.026138
-0.009887 -0.000000 0.028483
-0.013100 -0.000000 0.020601
-0.019050 -0.006120 0.025359
-0.013878 -0.005355 0.020150
-0.025915 -0.005907 0.022607
-0.025585 -0.000000 0.022427
-0.028130 -0.006914 0.027034
-0.028282 -0.000000 0.025748
-0.044225 -0.008731 0.028403
-0.038266 -0.009948 0.027581
-0.040532 -0.000000 0.027365
-0.050180 -0.012954 0.037879
-0.055326 0.000000 0.038212
-0.056092 -0.013429 0.038378
-0.059289 0.000000 0.040142
-0.066277 -0.000000 0.039699
-0.058016 -0.012998 0.039196
-0.058447 -0.010728 0.037742
-0.066613 -0.018659 0.046263
-0.083368 -0.000000 0.048801
-0.059723 -0.016403 0.050782
-0.065588 -0.000000 0.068022
-0.050000 0.000000 0.000000
-0.050000 0.000000 0.000000
-0.050000 0.000000 0.000000
0.000000 0.000000 0.000000
-0.001764 0.005185 0.017633
-0.010189 0.006435 0.026138
0.000000 0.000000 0.000000
0.000000 0.000000 0.000000
-0.003629 0.007148 0.015903
-0.014866 0.009591 0.018760
-0.010542 0.007345 0.023029
-0.013878 0.005355 0.020150
-0.019050 0.006120 0.025359
-0.026248 0.011597 0.021250
-0.025915 0.005907 0.022607
-0.040579 0.013773 0.023556
-0.028359 0.011976 0.024988
-0.028130 0.006914 0.027034
-0.044225 0.008731 0.028403
-0.038266 0.009948 0.027581
-0.050180 0.012954 0.037879
-0.056092 0.013429 0.038378
-0.050787 0.015026 0.033246
-0.059754 0.013595 0.032325
-0.054506 0.016302 0.034258
-0.058447 0.010728 0.037742
-0.058016 0.012998 0.039196
-0.068597 0.015104 0.035467
-0.066613 0.018659 0.046263
-0.050000 0.000000 0.000000
-0.061547 0.014644 0.040980