# vtk DataFile Version 3.0
vtk output at time 0.8
ASCII
DATASET UNSTRUCTURED_GRID
POINTS 1524 float
0 0 0 0 0 0.05 0 0 0.1 
0 0 0.15 0 0 0.2 0 0.05 0 
0 0.05 0.05 0 0.05 0.1 0 0.05 0.15 
0 0.05 0.2 0 0.1 0 0 0.1 0.05 
0 0.1 0.1 0 0.1 0.15 0 0.1 0.2 
0 0.15 0 0 0.15 0.05 0 0.15 0.1 
0 0.15 0.15 0 0.15 0.2 0 0.2 0 
0 0.2 0.05 0 0.2 0.1 0 0.2 0.15 
0 0.2 0.2 0.0372048 -0.00814352 -0.00870045 0.0395551 -0.00883592 0.0455049 
0.0403439 -0.00881448 0.100026 0.0396301 -0.00883913 0.154494 0.0372426 -0.00818745 0.208666 
0.0395698 0.0455924 -0.00888031 0.0395453 0.0455728 0.208914 0.0404855 0.100012 -0.00910077 
0.0404918 0.100032 0.209069 0.0396133 0.154385 -0.00880961 0.0395565 0.154426 0.20885 
0.0372861 0.208144 -0.00865604 0.0395811 0.208869 0.0455008 0.0403539 0.208846 0.100007 
0.0396202 0.208882 0.15447 0.0372688 0.208231 0.208602 0.0800584 -0.00949644 -0.00948865 
0.0799977 -0.00984358 0.0446133 0.0799419 -0.0106524 0.0999854 0.0797978 -0.00995521 0.155337 
0.0800661 -0.00950152 0.209449 0.080136 0.0445571 -0.009726 0.0801264 0.0445826 0.209757 
0.0799585 0.100033 -0.0107894 0.0800691 0.0999655 0.210712 0.0796803 0.155436 -0.00982954 
0.0797316 0.155308 0.209752 0.0800407 0.209456 -0.00947112 0.080022 0.209791 0.0445877 
0.0800968 0.210679 0.0999942 0.0799261 0.209941 0.155369 0.0800754 0.209447 0.209515 
0.122733 -0.00818135 -0.00866549 0.120643 -0.00906148 0.0455456 0.119596 -0.00917046 0.100024 
0.120445 -0.00896893 0.154539 0.122714 -0.00815708 0.208663 0.12071 0.0455601 -0.0090665 
0.120653 0.0455889 0.208964 0.119392 0.100059 -0.00925594 0.119374 0.10008 0.209157 
0.12052 0.154473 -0.00887947 0.120425 0.154441 0.208843 0.122793 0.208199 -0.00865344 
0.120643 0.209024 0.0454827 0.119586 0.209027 0.100034 0.120469 0.209101 0.154396 
0.122795 0.208215 0.208624 0.16 0 0 0.16 0 0.05 
0.16 0 0.1 0.16 0 0.15 0.16 0 0.2 
0.16 0.05 0 0.16 0.05 0.05 0.16 0.05 0.1 
0.16 0.05 0.15 0.16 0.05 0.2 0.16 0.1 0 
0.16 0.1 0.05 0.16 0.1 0.1 0.16 0.1 0.15 
0.16 0.1 0.2 0.16 0.15 0 0.16 0.15 0.05 
0.16 0.15 0.1 0.16 0.15 0.15 0.16 0.15 0.2 
0.16 0.2 0 0.16 0.2 0.05 0.16 0.2 0.1 
0.16 0.2 0.15 0.16 0.2 0.2 0 0 0.0166667 
0 0 0.0333333 0 0.0166667 0 0 0.0333333 0 
0.00830017 -0.00481446 -0.00612131 0.022143 -0.00718989 -0.00725706 0.0121097 -0.00580645 0.0124253 
0.0248671 -0.00723999 0.0284082 0 0 0.0666667 0 0 0.0833333 
0 0.0166667 0.0333333 0 0.0333333 0.0166667 0 0.0166667 0.05 
0 0.0333333 0.05 0 0.0166667 0.0666667 0 0.0333333 0.0833333 
0.0131856 -0.00590196 0.0479425 0.0258908 -0.00756464 0.046546 0 0 0.116667 
0 0 0.133333 0 0.0166667 0.1 0 0.0333333 0.1 
0.0133308 -0.00595124 0.0826377 0.0262502 -0.00743811 0.0644264 0.0138224 -0.00563505 0.10005 
0.0269224 -0.00764887 0.100042 0.0133568 -0.00590679 0.117452 0.0262927 -0.00739176 0.135626 
0 0 0.166667 0 0 0.183333 0 0.0166667 0.133333 
0 0.0333333 0.116667 0 0.0166667 0.15 0 0.0333333 0.15 
0 0.0166667 0.166667 0 0.0333333 0.183333 0.0132306 -0.00582737 0.152057 
0.0259373 -0.00750854 0.153479 0 0.0166667 0.2 0 0.0333333 0.2 
0.0121344 -0.00579631 0.187546 0.0249125 -0.00721339 0.171585 0.00832191 -0.00482928 0.206087 
0.0221732 -0.00721009 0.207226 0 0.05 0.0166667 0 0.05 0.0333333 
0 0.0666667 0 0 0.0833333 0 0 0.0666667 0.0166667 
0 0.0833333 0.0333333 0.0114865 0.0308172 -0.00576713 0.0238439 0.0106489 -0.00750629 
0.0140281 0.0303366 0.0123603 0.0269453 0.0105815 0.0283738 0.0131418 0.048163 -0.00572999 
0.0261916 0.0466918 -0.00788527 0.0134621 0.0658429 -0.00591757 0.0265671 0.0823121 -0.00766818 
0 0.05 0.0666667 0 0.05 0.0833333 0 0.0666667 0.05 
0 0.0833333 0.05 0.0148641 0.0302544 0.0479622 0.027822 0.0104691 0.0465305 
0.0146931 0.0479182 0.030224 0.0275952 0.0465549 0.0103579 0.0151072 0.0653892 0.0302027 
0.0284689 0.0822378 0.0103922 0.0285157 0.0285419 0.0464311 0.0539751 0.00832251 0.0449134 
0.0290265 0.0284527 0.0643574 0.0545964 0.00817519 0.0816232 0.028628 0.046457 0.0283821 
0.0539977 0.0449986 0.00825377 0.0291066 0.0642843 0.028396 0.0546238 0.0816805 0.00818175 
0 0.05 0.116667 0 0.05 0.133333 0 0.0666667 0.0833333 
0 0.0833333 0.0666667 0 0.0666667 0.1 0 0.0833333 0.1 
0 0.0666667 0.116667 0 0.0833333 0.133333 0.0151416 0.0302679 0.0827531 
0.0282403 0.01039 0.0643776 0.0151762 0.0302301 0.100044 0.0283318 0.010468 0.100032 
0.0151891 0.0302848 0.117354 0.0283237 0.0103964 0.135706 0.0293843 0.0284737 0.100009 
0.0548698 0.00812509 0.100045 0.0293044 0.0284245 0.117849 0.054506 0.00824895 0.136705 
0.0297909 0.0642757 0.0642956 0.0552779 0.0816535 0.026465 0 0.05 0.166667 
0 0.05 0.183333 0 0.0666667 0.15 0 0.0833333 0.15 
0.0149262 0.0303094 0.152143 0.0279459 0.0105155 0.153529 0.0147227 0.047928 0.169802 
0.027598 0.0465513 0.189679 0.0150699 0.0653758 0.169816 0.0284113 0.0822418 0.189622 
0.0288461 0.0285003 0.153666 0.0541183 0.00838513 0.155018 0.0286579 0.0464703 0.171651 
0.0539547 0.0449683 0.19177 0.0290253 0.0643125 0.17162 0.0545755 0.0816195 0.191847 
0 0.0666667 0.183333 0 0.0833333 0.166667 0 0.0666667 0.2 
0 0.0833333 0.2 0.0140396 0.0303277 0.187671 0.0270189 0.0105989 0.171634 
0.0114855 0.0307878 0.205792 0.0238695 0.0106193 0.207501 0.013129 0.0481432 0.205746 
0.0261735 0.0466741 0.207913 0.013435 0.0658367 0.205938 0.0265313 0.0823303 0.207683 
0 0.1 0.0166667 0 0.1 0.0333333 0 0.116667 0 
0 0.133333 0 0.0131783 0.100067 -0.00602784 0.0262773 0.0999366 -0.00730368 
0 0.1 0.0666667 0 0.1 0.0833333 0 0.116667 0.0333333 
0 0.133333 0.0166667 0 0.116667 0.05 0 0.133333 0.05 
0 0.116667 0.0666667 0 0.133333 0.0833333 0.0151964 0.100014 0.0302269 
0.0285947 0.1 0.0103254 0.0151365 0.117369 0.0302324 0.0282113 0.135629 0.0103987 
0.0294499 0.100006 0.0283301 0.0548831 0.0999935 0.00814818 0.0293109 0.117811 0.0283288 
0.0544787 0.136642 0.00827589 0 0.1 0.116667 0 0.1 0.133333 
0 0.116667 0.1 0 0.133333 0.1 0.029983 0.0643667 0.0999856 
0.055256 0.0264962 0.0999781 0.0298438 0.0644658 0.117793 0.0550802 0.0264954 0.1367 
0.029922 0.100005 0.0643829 0.055336 0.10001 0.0265175 0.0302024 0.0999835 0.135634 
0.0552832 0.0999796 0.173559 0.0298419 0.117795 0.0644229 0.0551044 0.136632 0.0265289 
0.0299549 0.117763 0.135624 0.0550428 0.136815 0.173524 0.0301026 0.135634 0.0999925 
0.055264 0.17353 0.0999537 0.0299045 0.135579 0.117745 0.0550568 0.173534 0.136717 
0.0566021 0.0999993 0.0999752 0.103468 0.100015 0.100012 0 0.1 0.166667 
0 0.1 0.183333 0 0.116667 0.133333 0 0.133333 0.116667 
0 0.116667 0.15 0 0.133333 0.15 0 0.116667 0.166667 
0 0.133333 0.183333 0.0152152 0.100001 0.169676 0.0286043 0.100011 0.189594 
0.0151622 0.117302 0.169681 0.0282113 0.135581 0.189581 0.0295155 0.0642852 0.15365 
0.0547284 0.0265548 0.155076 0.0294549 0.0999628 0.171562 0.0548788 0.100007 0.191915 
0.0293288 0.117789 0.171564 0.0544494 0.136744 0.191782 0.0294923 0.135648 0.153588 
0.0547505 0.173462 0.15506 0 0.116667 0.2 0 0.133333 0.2 
0.0131887 0.100082 0.206011 0.0262879 0.0999557 0.207273 0 0.15 0.0166667 
0 0.15 0.0333333 0 0.166667 0 0 0.183333 0 
0 0.166667 0.0166667 0 0.183333 0.0333333 0.0132543 0.134661 -0.00587466 
0.0264134 0.117716 -0.00753464 0.0135529 0.151832 -0.00566119 0.0265182 0.153331 -0.00781871 
0.01167 0.169061 -0.00571491 0.0239137 0.189358 -0.00744812 0.0140626 0.169556 0.0123544 
0.0269936 0.18948 0.028415 0 0.15 0.0666667 0 0.15 0.0833333 
0 0.166667 0.05 0 0.183333 0.05 0.014901 0.152127 0.0302328 
0.0279319 0.15349 0.0104307 0.0148887 0.169749 0.0479737 0.0278594 0.189563 0.046552 
0.0288221 0.1536 0.0284461 0.0540746 0.154927 0.00838868 0.0286776 0.171544 0.0464368 
0.0540373 0.191678 0.0449425 0.029096 0.171591 0.0643417 0.0545987 0.191796 0.0816106 
0 0.15 0.116667 0 0.15 0.133333 0 0.166667 0.0833333 
0 0.183333 0.0666667 0 0.166667 0.1 0 0.183333 0.1 
0 0.166667 0.116667 0 0.183333 0.133333 0.015157 0.169736 0.0827425 
0.0282691 0.189645 0.064371 0.0151929 0.169788 0.100016 0.0283379 0.189567 0.100012 
0.0151795 0.169736 0.117308 0.0283005 0.189653 0.135679 0.0295261 0.153622 0.0642744 
0.0547447 0.154989 0.0265765 0.0294287 0.171568 0.0999992 0.0548544 0.19188 0.100031 
0.0292839 0.171602 0.117817 0.0544731 0.19178 0.136712 0 0.15 0.166667 
0 0.15 0.183333 0 0.166667 0.15 0 0.183333 0.15 
0.0148832 0.152057 0.169771 0.0278804 0.153459 0.189604 0.0149195 0.169691 0.152101 
0.0279174 0.189523 0.153495 0.0287538 0.153539 0.171578 0.0539919 0.155061 0.191682 
0.0289029 0.171565 0.1536 0.0541219 0.19165 0.155 0 0.166667 0.183333 
0 0.183333 0.166667 0 0.166667 0.2 0 0.183333 0.2 
0.0132511 0.134633 0.205868 0.0264071 0.117711 0.207492 0.0135238 0.151813 0.205682 
0.0264677 0.153325 0.207845 0.0140693 0.169536 0.187656 0.0270287 0.189444 0.171586 
0.0116623 0.169059 0.205725 0.023908 0.189379 0.207442 0 0.2 0.0166667 
0 0.2 0.0333333 0.00832671 0.204709 -0.00611985 0.0221561 0.207184 -0.00720821 
0.0121434 0.205733 0.0124156 0.0248604 0.207278 0.0284265 0 0.2 0.0666667 
0 0.2 0.0833333 0.0131728 0.205891 0.0479374 0.0258615 0.207578 0.0465759 
0 0.2 0.116667 0 0.2 0.133333 0.0133289 0.205957 0.0826181 
0.0262547 0.207458 0.0644325 0.0138093 0.205647 0.100022 0.0269171 0.207679 0.100018 
0.0133344 0.205932 0.117428 0.0262564 0.207437 0.135597 0 0.2 0.166667 
0 0.2 0.183333 0.0131943 0.205845 0.152067 0.0258761 0.207541 0.153439 
0.0121491 0.20572 0.187569 0.0248698 0.207249 0.171559 0.00831991 0.204711 0.206102 
0.0221389 0.207202 0.20718 0.0379286 -0.00834109 0.00929578 0.0386463 -0.00858828 0.0274391 
0.0379635 0.00948865 -0.00855695 0.0388176 0.0274729 -0.00865104 0.0514037 -0.00903562 -0.00909961 
0.0657634 -0.0094358 -0.00940376 0.0520638 0.00878621 -0.0091969 0.0664006 0.0264325 -0.00971067 
0.0401775 -0.00891339 0.063812 0.0402562 -0.00887835 0.0819144 0.0400106 0.00933229 0.027358 
0.0399814 0.0274726 0.00918628 0.0525114 -0.00933831 0.0266478 0.06602 -0.00947542 0.00835415 
0.0529265 -0.00961406 0.044893 0.0664188 -0.00997621 0.0446281 0.0533326 -0.00975886 0.063203 
0.0667488 -0.0103449 0.0814529 0.0533181 0.00852949 0.0266651 0.0666696 0.0264455 0.00813093 
[...]
POINT_DATA 1524
VECTORS displacement float
0 0 0
0 0 0
0 0 0
0 0 0
0 0 0
0 0 0
0 0 0
0 0 0
0 0 0
0 0 0
0 0 0
0 0 0
0 0 0
0 0 0
0 0 0
0 0 0
0 0 0
0 0 0
0 0 0
0 0 0
0 0 0
0 0 0
0 0 0
0 0 0
0 0 0
-0.0127952 -0.00814352 -0.00870045
-0.0104449 -0.00883592 -0.00449508
-0.00965611 -0.00881448 2.60457e-05
-0.0103699 -0.00883913 0.00449387
-0.0127574 -0.00818745 0.00866632
-0.0104302 -0.00440761 -0.00888031
-0.0104547 -0.00442719 0.00891349
-0.00951449 1.16925e-05 -0.00910077
-0.00950821 3.19853e-05 0.00906943
-0.0103867 0.00438532 -0.00880961
-0.0104435 0.00442604 0.00884985
-0.0127139 0.00814386 -0.00865604
-0.0104189 0.00886949 -0.0044992
-0.0096461 0.00884648 6.89053e-06
-0.0103798 0.00888248 0.00446973
-0.0127312 0.00823063 0.00860168
-0.0199416 -0.00949644 -0.00948865
-0.0200023 -0.00984358 -0.00538675
-0.0200581 -0.0106524 -1.46396e-05
-0.0202022 -0.00995521 0.00533685
-0.0199339 -0.00950152 0.00944889
-0.019864 -0.00544293 -0.009726
-0.0198736 -0.00541738 0.00975699
-0.0200415 3.34533e-05 -0.0107894
-0.0199309 -3.44723e-05 0.0107115
-0.0203197 0.00543575 -0.00982954
-0.0202684 0.00530796 0.0097524
-0.0199593 0.00945613 -0.00947112
-0.019978 0.00979053 -0.00541231
-0.0199032 0.0106791 -5.83608e-06
-0.0200739 0.00994136 0.00536919
-0.0199246 0.00944736 0.0095147
-0.0272669 -0.00818135 -0.00866549
-0.0293569 -0.00906148 -0.00445444
-0.0304041 -0.00917046 2.38443e-05
-0.0295547 -0.00896893 0.00453873
-0.0272864 -0.00815708 0.0086632
-0.0292896 -0.00443987 -0.0090665
-0.029347 -0.00441107 0.00896376
-0.0306083 5.90431e-05 -0.00925594
-0.0306262 7.95071e-05 0.00915684
-0.0294805 0.00447284 -0.00887947
-0.0295752 0.00444086 0.00884281
-0.0272067 0.00819884 -0.00865344
-0.0293572 0.00902413 -0.00451725
-0.0304142 0.00902747 3.439e-05
-0.0295307 0.00910136 0.00439559
-0.0272054 0.00821496 0.00862425
-0.04 0 0
-0.04 0 0
-0.04 0 0
-0.04 0 0
-0.04 0 0
-0.04 0 0
-0.04 0 0
-0.04 0 0
-0.04 0 0
-0.04 0 0
-0.04 0 0
-0.04 0 0
-0.04 0 0
-0.04 0 0
-0.04 0 0
-0.04 0 0
-0.04 0 0
-0.04 0 0
-0.04 0 0
-0.04 0 0
-0.04 0 0
-0.04 0 0
-0.04 0 0
-0.04 0 0
-0.04 0 0
0 0 0
0 0 0
0 0 0
0 0 0
-0.0083665 -0.00481446 -0.00612131
-0.0111903 -0.00718989 -0.00725706
-0.00455699 -0.00580645 -0.00424132
-0.00846628 -0.00723999 -0.00492516
0 0 0
0 0 0
0 0 0
0 0 0
0 0 0
0 0 0
0 0 0
0 0 0
-0.00348108 -0.00590196 -0.00205751
-0.00744253 -0.00756464 -0.003454
0 0 0
0 0 0
0 0 0
0 0 0
-0.00333584 -0.00595124 -0.000695641
-0.00708318 -0.00743811 -0.00224029
-0.00284425 -0.00563505 4.9515e-05
-0.00641096 -0.00764887 4.20434e-05
-0.00330987 -0.00590679 0.000785659
-0.00704058 -0.00739176 0.00229297
0 0 0
0 0 0
0 0 0
0 0 0
0 0 0
0 0 0
0 0 0
0 0 0
-0.00343609 -0.00582737 0.00205746
-0.00739606 -0.00750854 0.00347907
0 0 0
0 0 0
-0.00453229 -0.00579631 0.00421315
-0.00842082 -0.00721339 0.00491866
-0.00834476 -0.00482928 0.00608659
-0.0111601 -0.00721009 0.00722584
0 0 0
0 0 0
0 0 0
0 0 0
0 0 0
0 0 0
-0.00518017 -0.00251614 -0.00576713
-0.00948939 -0.0060178 -0.00750629
-0.00263854 -0.00299676 -0.00430637
-0.00638806 -0.00608512 -0.00495954
-0.00352482 -0.001837 -0.00572999
-0.00714174 -0.00330822 -0.00788527
-0.0032046 -0.000823774 -0.00591757
-0.00676623 -0.00102123 -0.00766818
0 0 0
0 0 0
0 0 0
0 0 0
-0.00180261 -0.00307893 -0.00203776
-0.00551135 -0.00619755 -0.00346948
-0.00197357 -0.00208183 -0.00310937
-0.00573818 -0.00344512 -0.00630877
-0.00155944 -0.00127751 -0.0031306
-0.00486448 -0.00109557 -0.00627443
-0.0048176 -0.0047914 -0.00356892
-0.0126915 -0.00834416 -0.00508659
-0.00430679 -0.00488059 -0.00230926
-0.0120702 -0.00849148 -0.00171012
-0.00470528 -0.00354299 -0.00495123
-0.012669 -0.00500144 -0.00841289
-0.00422674 -0.00238241 -0.00493733
-0.0120429 -0.00165281 -0.00848491
0 0 0
0 0 0
0 0 0
0 0 0
0 0 0
0 0 0
0 0 0
0 0 0
-0.0015251 -0.0030654 -0.000580218
-0.00509308 -0.00627666 -0.00228908
-0.00149047 -0.00310321 4.42285e-05
-0.00500156 -0.00619865 3.19694e-05
-0.00147759 -0.00304857 0.000687338
-0.00500965 -0.00627023 0.00237314
-0.00394898 -0.00485967 9.47652e-06
-0.0117969 -0.00854158 4.54294e-05
-0.00402896 -0.00490887 0.00118215
-0.0121607 -0.00841772 0.00337213
-0.0035424 -0.00239097 -0.00237107
-0.0113887 -0.00167985 -0.00686833
0 0 0
0 0 0
0 0 0
0 0 0
-0.00174043 -0.00302396 0.00214271
-0.00538745 -0.00615119 0.00352863
-0.00194398 -0.002072 0.00313528
-0.00573533 -0.00344868 0.0063458
-0.00159677 -0.00129088 0.00314958
-0.00492205 -0.00109155 0.00628865
-0.00448725 -0.00483302 0.00366642
-0.0125483 -0.00828154 0.00501762
-0.0046754 -0.00352967 0.00498406
-0.012712 -0.00503173 0.00843691
-0.00430801 -0.00235416 0.0049536
-0.0120912 -0.00171381 0.00851374
0 0 0
0 0 0
0 0 0
0 0 0
-0.00262711 -0.00300564 0.00433793
-0.00631438 -0.00606775 0.00496704
-0.00518117 -0.00254556 0.00579239
-0.00946386 -0.00604738 0.00750049
-0.00353765 -0.00185682 0.00574565
-0.00715981 -0.00332592 0.00791295
-0.0032317 -0.000829963 0.00593795
-0.00680205 -0.001003 0.0076826
0 0 0
0 0 0
0 0 0
0 0 0
-0.00348834 6.6558e-05 -0.00602784
-0.00705604 -6.33972e-05 -0.00730368
0 0 0
0 0 0
0 0 0
0 0 0
0 0 0
0 0 0
0 0 0
0 0 0
-0.00147024 1.37283e-05 -0.00310642
-0.00473862 1.02504e-07 -0.00634129
-0.00153019 0.000701911 -0.00310091
-0.00512205 0.00229594 -0.00626795
-0.00388341 5.57113e-06 -0.00500324
-0.0117836 -6.54111e-06 -0.00851849
-0.00402244 0.00114429 -0.00500458
-0.012188 0.00330857 -0.00839078
0 0 0
0 0 0
0 0 0
0 0 0
-0.00335034 -0.00229993 -1.43796e-05
-0.0114107 -0.00683715 -2.19476e-05
-0.00348956 -0.00220084 0.00112634
-0.0115865 -0.00683792 0.00336699
-0.00341129 4.80969e-06 -0.00228381
-0.0113306 1.03871e-05 -0.00681581
-0.00313095 -1.65343e-05 0.0023004
-0.0113834 -2.04178e-05 0.0068921
-0.00349144 0.00112825 -0.00224376
-0.0115622 0.00329847 -0.00680448
-0.00337839 0.00109656 0.00229117
-0.0116238 0.00348118 0.00685684
-0.00323069 0.00230097 -7.474e-06
-0.0114027 0.00686371 -4.62831e-05
-0.00342887 0.0022454 0.00107787
-0.0116099 0.00686726 0.00338322
-0.0100646 -6.78364e-07 -2.48383e-05
-0.0298654 1.50835e-05 1.16744e-05
0 0 0
0 0 0
0 0 0
0 0 0
0 0 0
0 0 0
0 0 0
0 0 0
-0.00145144 9.01512e-07 0.00300891
-0.00472905 1.08553e-05 0.00626103
-0.00150443 0.00063515 0.00301465
-0.00512198 0.00224795 0.00624812
-0.00381778 -0.00238151 0.00364979
-0.0119383 -0.00677852 0.00507588
-0.00387839 -3.71626e-05 0.0048957
-0.0117878 7.09712e-06 0.00858168
-0.00400455 0.00112265 0.00489706
-0.0122173 0.00341061 0.00844857
-0.00384108 0.00231457 0.00358782
-0.0119161 0.0067956 0.0050604
0 0 0
0 0 0
-0.00347796 8.22229e-05 0.00601063
-0.00704539 -4.43154e-05 0.00727349
0 0 0
0 0 0
0 0 0
0 0 0
0 0 0
0 0 0
-0.00341239 0.00132781 -0.00587466
-0.00691989 0.0010489 -0.00753464
-0.0031138 0.00183152 -0.00566119
-0.00681514 0.00333104 -0.00781871
-0.0049967 0.00239438 -0.00571491
-0.00941965 0.00602466 -0.00744812
-0.00260403 0.00288888 -0.00431227
-0.00633972 0.00614695 -0.00491834
0 0 0
0 0 0
0 0 0
0 0 0
-0.00176566 0.00212677 -0.00310053
-0.00540145 0.00348953 -0.00623599
-0.00177798 0.00308195 -0.00202629
-0.0054739 0.00623004 -0.00344796
-0.00451127 0.00360043 -0.00488719
-0.0125921 0.00492747 -0.00827798
-0.00465573 0.00487693 -0.00356324
-0.0126293 0.00834423 -0.00505752
-0.00423735 0.00492432 -0.00232498
-0.012068 0.00846222 -0.0017227
0 0 0
0 0 0
0 0 0
0 0 0
0 0 0
0 0 0
0 0 0
0 0 0
-0.00150969 0.00306964 -0.00059085
-0.0050642 0.00631127 -0.00229568
-0.00147374 0.00312091 1.56836e-05
-0.00499544 0.00623353 1.20222e-05
-0.00148714 0.00306908 0.000641662
-0.00503286 0.00631924 0.00234568
-0.00380724 0.00362226 -0.00239226
-0.011922 0.004989 -0.0067568
-0.0039046 0.00490108 -8.14231e-07
-0.0118122 0.00854671 3.09701e-05
-0.00404941 0.00493487 0.0011505
-0.0121935 0.00844639 0.00337913
0 0 0
0 0 0
0 0 0
0 0 0
-0.00178348 0.00205715 0.00310462
-0.00545296 0.00345937 0.00627088
-0.00174719 0.00302408 0.00210113
-0.00541594 0.00618987 0.00349496
-0.0045795 0.00353936 0.0049111
-0.0126747 0.00506084 0.00834848
-0.00443047 0.00489849 0.00360015
-0.0125448 0.00831648 0.0050001
0 0 0
0 0 0
0 0 0
0 0 0
-0.00341559 0.00129923 0.00586797
-0.00692623 0.00104421 0.00749172
-0.00314283 0.00181296 0.00568212
-0.00686561 0.00332532 0.00784519
-0.00259739 0.00286976 0.00432301
-0.00630459 0.00611056 0.00491943
-0.00500433 0.00239223 0.00572513
-0.00942531 0.0060452 0.0074416
0 0 0
0 0 0
-0.00833995 0.00470932 -0.00611985
-0.0111772 0.00718427 -0.00720821
-0.0045233 0.0057327 -0.00425107
-0.0084729 0.00727801 -0.0049068
0 0 0
0 0 0
-0.00349387 0.0058912 -0.0020626
-0.00747179 0.00757784 -0.0034241
0 0 0
0 0 0
-0.00333781 0.00595662 -0.000715225
-0.00707867 0.00745781 -0.00223417
-0.00285733 0.00564728 2.23666e-05
-0.0064162 0.00767892 1.81994e-05
-0.00333226 0.00593186 0.00076154
-0.00707697 0.00743746 0.00226353
0 0 0
0 0 0
-0.00347234 0.00584472 0.00206685
-0.00745725 0.00754131 0.00343893
-0.00451756 0.00572021 0.00423584
-0.00846353 0.00724934 0.00489195
-0.00834675 0.00471142 0.00610186
-0.0111944 0.00720213 0.00717977
-0.0120714 -0.00834109 -0.00737089
-0.0113537 -0.00858828 -0.00589428
-0.0120365 -0.00717801 -0.00855695
-0.0111824 -0.00586042 -0.00865104
-0.015263 -0.00903562 -0.00909961
-0.01757 -0.0094358 -0.00940376
-0.0146029 -0.00788046 -0.0091969
-0.0169327 -0.00690082 -0.00971067
-0.00982254 -0.00891339 -0.00285465
-0.00974382 -0.00887835 -0.00141893
-0.00998937 -0.00733437 -0.00597529
-0.0100186 -0.00586077 -0.00748039
-0.0141553 -0.00933831 -0.00668554
-0.0173133 -0.00947542 -0.00831252
-0.0137402 -0.00961406 -0.00510702
-0.0169145 -0.00997621 -0.00537192
-0.0133341 -0.00975886 -0.00346366
-0.0165845 -0.0103449 -0.00188046
-0.0133486 -0.00813718 -0.00666826
-0.0166638 -0.00688782 -0.00853574
-0.00970726 -0.00887513 0.00145893
-0.00974648 -0.00890224 0.00286971
-0.0129643 -0.00978053 2.16973e-05
-0.0164479 -0.0104035 1.35775e-05
-0.011305 -0.00858678 0.00587481
-0.0120359 -0.00835656 0.00734165
-0.00989289 -0.00733829 0.00596318
-0.0099831 -0.00588185 0.00750836
-0.0131926 -0.00974888 0.00338653
-0.0164664 -0.0103415 0.0018542
-0.013747 -0.00960153 0.00504877
-0.0170548 -0.00996448 0.005272
-0.0141044 -0.00934708 0.00664407
-0.0172765 -0.00947547 0.00825847
-0.0132717 -0.00814112 0.006627
-0.01667 -0.00688302 0.00853157
-0.0120023 -0.00722073 0.0085494
-0.0111724 -0.00589846 0.00867757
-0.0152237 -0.00908319 0.00905562
-0.0175384 -0.00946192 0.00935458
-0.0145721 -0.00792797 0.00918575
-0.016924 -0.00692124 0.00971926
-0.00994825 -0.00291042 -0.00892887
-0.00968849 -0.00143583 -0.00895745
-0.0135267 -0.00505571 -0.00967724
-0.0166895 -0.00537759 -0.00995831
-0.00999296 -0.00291324 0.00895716
-0.0097297 -0.00142436 0.00897061
-0.0135613 -0.00508391 0.00970835
-0.0167245 -0.00539705 0.00998733
-0.00966561 0.00144263 -0.00891759
-0.00993066 0.00289451 -0.00888132
-0.0130332 -0.00165619 -0.00984262
-0.0165567 -0.00360375 -0.0101433
-0.0130095 1.4237e-05 -0.00992628
-0.0165513 4.69996e-05 -0.0104698
-0.0129655 0.00170078 -0.00978996
-0.0165546 0.00363721 -0.0101131
-0.00968188 0.0014658 0.00888977
-0.00995263 0.00290754 0.00887679
-0.0130762 -0.00167248 0.00985895
-0.0166111 -0.00363673 0.0101713
-0.0130053 2.46982e-05 0.00991025
-0.0165066 1.85298e-05 0.0104558
-0.0129899 0.00174683 0.00982495
-0.0165544 0.00368799 0.0101734
-0.0111127 0.00591083 -0.00859112
-0.0119847 0.00722448 -0.00848656
-0.0098941 0.00591747 -0.00740178
-0.00989508 0.0074215 -0.00592711
-0.0136881 0.00496469 -0.00961245
-0.0170075 0.00523867 -0.00997642
-0.00991165 0.00595629 0.00741952
-0.00985952 0.00742193 0.00590193
-0.0111505 0.00596978 0.00860869
-0.012006 0.00729709 0.00847666
-0.0137271 0.00506806 0.0096622
-0.017013 0.00533665 0.00998234
-0.0120032 0.00837935 -0.00734412
-0.0112999 0.00865662 -0.00588725
-0.0145496 0.00787634 -0.00915523
-0.0170281 0.0068361 -0.00968171
-0.0151771 0.00904882 -0.00906879
-0.0175248 0.00940858 -0.0093794
-0.00978436 0.00894584 -0.00286443
-0.00971135 0.00890756 -0.00143426
-0.0132624 0.00815694 -0.00661903
-0.0166957 0.00681905 -0.00849675
-0.0140499 0.00936063 -0.0066602
-0.0172295 0.00944625 -0.00827315
-0.0136616 0.00966216 -0.00511084
-0.0168605 0.00996559 -0.00538176
-0.013261 0.00975743 -0.00345218
-0.0165051 0.0102886 -0.00186581
-0.00971152 0.00891867 0.00144071
-0.00976437 0.00896028 0.00285356
-0.0129478 0.00978366 7.11059e-06
-0.0164023 0.0103861 6.47365e-06
-0.011297 0.00865719 0.0058329
-0.012026 0.00841288 0.00728565
-0.0132433 0.0082 0.00658481
-0.0167343 0.00688796 0.0085076
-0.0131837 0.00978646 0.00337721
-0.016435 0.0103091 0.00183948
-0.0136638 0.00965862 0.00502176
-0.0169087 0.0100034 0.00527006
-0.0140434 0.00939862 0.00659802
-0.0172121 0.00949565 0.00824966
-0.0145717 0.00798761 0.00914819
-0.0170243 0.00691748 0.00970693
-0.0152059 0.00915206 0.00901217
-0.0175149 0.00947407 0.00935545
-0.019991 -0.00955781 -0.00832112
-0.0200018 -0.00967925 -0.00692913
-0.0199392 -0.00831483 -0.00948804
-0.0199084 -0.00697731 -0.00959458
-0.0223812 -0.00945638 -0.00929141
-0.0247723 -0.00904957 -0.0090154
-0.0226937 -0.00945593 -0.00819037
-0.0258499 -0.00930352 -0.0066016
-0.0200535 -0.0101298 -0.00369777
-0.0200997 -0.0104098 -0.00188485
-0.0200529 -0.00846305 -0.00692948
-0.0200002 -0.00691154 -0.00841175
-0.0200777 -0.00706875 -0.00705759
-0.0199981 -0.00362197 -0.0088841
-0.023051 -0.0098406 -0.00529425
-0.0261471 -0.0095464 -0.00502719
-0.023646 -0.00699339 -0.0069825
-0.0274566 -0.00336015 -0.00843192
-0.0200299 -0.0104512 0.00182153
-0.0200146 -0.0102423 0.00363936
-0.0200697 -0.00750127 -0.0037592
-0.0199617 -0.00377567 -0.00745145
-0.0199577 -0.00741722 0.00373231
-0.0200125 -0.00374797 0.00743866
-0.0234081 -0.0101397 -0.00187087
-0.0265268 -0.0096419 -0.0034446
-0.023449 -0.0103556 -5.87797e-06
-0.0269401 -0.00990655 3.63966e-06
-0.0235132 -0.0102986 0.00182139
-0.0267256 -0.00980572 0.00343594
-0.0242123 -0.00733322 -0.00362945
-0.0281981 -0.00340735 -0.00691705
-0.0241143 -0.00725419 0.00359713
-0.0282652 -0.00338305 0.00686189
-0.0285804 -0.00682512 2.87793e-06
-0.0367794 -0.00231221 4.04584e-05
-0.0284956 -0.0068571 0.00170832
-0.0365855 -0.00241302 0.00234309
-0.0200323 -0.00966169 0.00688247
-0.0199725 -0.00952644 0.00827913
-0.0200627 -0.00846005 0.00691229
-0.020003 -0.00687044 0.00842551
-0.0200493 -0.00698578 0.00715182
-0.0200589 -0.0035983 0.00895126
-0.0232127 -0.00980121 0.00529923
-0.0263426 -0.00949459 0.0050885
-0.0236505 -0.00695165 0.00696566
-0.0275124 -0.00331742 0.0083952
-0.0199466 -0.00830675 0.00946247
-0.0199132 -0.00696098 0.00958627
-0.0226968 -0.00941751 0.00819237
-0.0259104 -0.00927911 0.00662744
-0.0223954 -0.00941078 0.00930111
-0.0247899 -0.00900079 0.00903077
-0.0199821 -0.00375736 -0.00999604
-0.0199944 -0.00194052 -0.0103281
-0.0229755 -0.00690427 -0.00962269
-0.0254082 -0.00787641 -0.00911727
-0.0233129 -0.00686118 -0.00840154
-0.0266107 -0.00813185 -0.00657145
-0.023158 -0.00535642 -0.00979592
-0.0262338 -0.00506076 -0.00948801
-0.023277 -0.0036812 -0.00997129
-0.0268845 -0.00180008 -0.00986101
-0.0199958 -0.00373768 0.0100509
-0.0199957 -0.00193167 0.0103631
-0.0233041 -0.00682801 0.00839027
-0.0266291 -0.00809163 0.0065838
-0.0229836 -0.00687152 0.00961761
-0.0254075 -0.00783492 0.00911691
-0.0231828 -0.0053333 0.00980799
-0.0262766 -0.00503918 0.00948227
-0.0233078 -0.00365189 0.0099707
-0.026993 -0.00176379 0.00981421
-0.019994 0.00185867 -0.010557
-0.0200609 0.00369727 -0.0102178
-0.0198326 0.00373983 -0.00745665
-0.0199297 0.00746028 -0.00375455
-0.0235135 4.01461e-06 -0.0104907
-0.0270958 -1.78603e-06 -0.0100183
-0.0240554 0.0036166 -0.00732594
-0.0282255 0.00692513 -0.00343036
-0.0285805 -1.55213e-05 -0.00687159
-0.0367588 8.95849e-06 -0.00228647
-0.0284815 0.00171283 -0.00688602
-0.0365887 0.00236527 -0.00238451
-0.0199658 0.00180845 0.0104519
-0.0200489 0.00363581 0.0101053
-0.0200316 0.0037627 0.00740991
-0.019935 0.00744556 0.00368966
-0.019947 0.00360687 0.00893307
-0.0198938 0.00705375 0.00704267
-0.0235001 1.66884e-06 0.0104166
-0.0271204 1.90918e-05 0.00995016
-0.0242259 0.00362201 0.00726109
-0.0282025 0.00686832 0.00337323
-0.0237936 0.00351382 0.00882859
-0.0272888 0.00669382 0.00664616
-0.028668 -2.96785e-06 0.00679081
-0.036652 -2.60406e-05 0.00226424
-0.0281907 1.11194e-05 0.00848551
-0.0361151 -3.39628e-05 0.00497778
-0.0286471 0.00167571 0.00686576
-0.0365021 0.00228739 0.00233629
-0.0280068 0.00169925 0.00843768
-0.0358701 0.00226887 0.00502178
-0.0200366 0.0069692 -0.00959038
-0.0199475 0.00828341 -0.00947356
-0.0200133 0.00698579 -0.00841417
-0.019951 0.00846217 -0.00688584
-0.0199516 0.00720113 -0.00697378
-0.0199727 0.00899054 -0.00360219
-0.023302 0.00368281 -0.0101496
-0.0268921 0.00173821 -0.00987675
-0.0231916 0.00533482 -0.00994884
-0.0262853 0.00505223 -0.00963843
-0.0229877 0.0068153 -0.00960836
-0.0253657 0.00790437 -0.00913438
-0.0232869 0.00683753 -0.00846749
-0.0265192 0.00816307 -0.00658806
-0.0235785 0.00699761 -0.00701001
-0.0274672 0.00845647 -0.00337236
-0.0278029 0.00509634 -0.00678416
-0.0362333 0.00365289 -0.00234249
-0.0200346 0.006897 0.00841861
-0.0199796 0.00844366 0.00693777
-0.020031 0.00687056 0.00951947
-0.0199512 0.00823582 0.00945378
-0.0233717 0.00367077 0.0100595
-0.0269926 0.0017221 0.00982471
-0.0232808 0.00538598 0.0098582
-0.026433 0.0051033 0.00958516
-0.0232469 0.00681322 0.00845615
-0.0265539 0.00817579 0.00658385
-0.0230264 0.0068455 0.00962575
-0.0253611 0.00791877 0.00913242
-0.0272199 0.00505779 0.00828534
-0.0354193 0.00347446 0.00497559
-0.0199313 0.00949095 -0.00831137
-0.0199317 0.00962271 -0.00693334
-0.0223807 0.00940433 -0.00935589
-0.0247543 0.00907883 -0.00903762
-0.0226651 0.00942117 -0.00824259
-0.025857 0.00930818 -0.00659128
-0.0200317 0.0100689 -0.00372178
-0.01999 0.0103751 -0.00189056
-0.0231512 0.0098482 -0.00534988
-0.0263625 0.00952935 -0.00509738
-0.0200018 0.0103754 0.00180685
-0.0200161 0.0101573 0.00363309
-0.0234815 0.0101876 -0.00187529
-0.0268082 0.00971468 -0.00341215
-0.0234583 0.0103835 8.911e-06
-0.0269933 0.0098794 1.98147e-05
-0.0234544 0.0101521 0.0018529
-0.0267806 0.00966957 0.00341721
-0.0285527 0.00680966 -1.11806e-05
-0.0366383 0.0023132 -4.26366e-06
-0.0280883 0.00848746 -3.42477e-06
-0.0360368 0.00501433 -5.23939e-06
-0.0199726 0.00965091 0.00693502
-0.0199443 0.00951446 0.0083319
-0.023256 0.00981182 0.00533124
-0.0263857 0.00952828 0.00506943
-0.0226905 0.00942736 0.00823997
-0.0258798 0.009347 0.00661927
-0.0224 0.00940012 0.00935128
-0.0247387 0.00907829 0.00902064
-0.0279319 -0.00843849 -0.00735829
-0.0285801 -0.00875331 -0.00587889
-0.0279309 -0.00727649 -0.00852721
-0.028747 -0.00596949 -0.00869821
-0.0287207 -0.00721804 -0.00720574
-0.0315749 -0.00474066 -0.00608316
-0.030466 -0.00606301 -0.00747764
-0.0349213 -0.00237289 -0.00572085
-0.0299746 -0.00921797 -0.0028882
-0.0302722 -0.00920716 -0.00141408
-0.029929 -0.00751472 -0.0059995
-0.0299107 -0.00598533 -0.00755204
-0.0311291 -0.00604757 -0.00610893
-0.0311946 -0.00284105 -0.00773572
-0.0314283 -0.00723563 -0.00489651
-0.0354551 -0.00572728 -0.00421628
-0.0323911 -0.00754534 -0.00339839
-0.0365231 -0.00575625 -0.00202967
-0.0327029 -0.0075051 -0.00224102
-0.0366464 -0.00586185 -0.000721898
-0.0335904 -0.00609976 -0.00490248
-0.0373915 -0.00283594 -0.00429245
-0.0345812 -0.00620652 -0.00343756
-0.0383032 -0.00291323 -0.00205263
-0.0350484 -0.00638689 -0.00232626
-0.0385828 -0.00302232 -0.000646421
-0.0354557 -0.00481783 -0.00357366
-0.0388209 -0.00139962 -0.00206539
-0.0357933 -0.00487916 -0.00226484
-0.0390587 -0.0012714 -0.000637578
-0.030364 -0.00904444 0.00150801
-0.0301806 -0.00904567 0.00299565
-0.0322973 -0.00616886 -0.00296263
-0.0321781 -0.00295799 -0.00615208
-0.0335396 -0.00783197 -1.45507e-05
-0.0371555 -0.00563105 -2.68094e-05
-0.0351571 -0.00648607 -5.56256e-06
-0.038551 -0.00315429 -6.90143e-06
-0.035925 -0.00504678 5.11166e-06
-0.0390476 -0.00136854 -2.63128e-05
-0.0358832 -0.00503456 0.00112485
-0.0389288 -0.00135594 0.0013085
-0.0286625 -0.00868902 0.0059181
-0.0279627 -0.00840074 0.00736731
-0.0299237 -0.00744212 0.00600865
-0.029906 -0.00593762 0.00751743
-0.031064 -0.00601886 0.00607491
-0.0312452 -0.00288649 0.00766573