# vtk DataFile Version 3.0
vtk output at time 0.5
ASCII
DATASET UNSTRUCTURED_GRID
POINTS 1524 float
0 0 0 0 0 0.05 0 0 0.1 
0 0 0.15 0 0 0.2 0 0.05 0 
0 0.05 0.05 0 0.05 0.1 0 0.05 0.15 
0 0.05 0.2 0 0.1 0 0 0.1 0.05 
0 0.1 0.1 0 0.1 0.15 0 0.1 0.2 
0 0.15 0 0 0.15 0.05 0 0.15 0.1 
0 0.15 0.15 0 0.15 0.2 0 0.2 0 
0 0.2 0.05 0 0.2 0.1 0 0.2 0.15 
0 0.2 0.2 0.0423616 -0.00552651 -0.00584201 0.0437146 -0.00597697 0.0470523 
0.0440741 -0.00600257 0.100012 0.0437292 -0.00598727 0.152948 0.0423842 -0.00554867 0.205822 
0.0437009 0.0470825 -0.00600852 0.0436885 0.0470765 0.206032 0.0441182 0.100012 -0.00619263 
0.0441407 0.100025 0.206156 0.0437051 0.152903 -0.00596778 0.0436852 0.152921 0.205999 
0.042395 0.205513 -0.00582558 0.0437096 0.206003 0.0470396 0.04408 0.206015 0.100003 
0.0437207 0.206009 0.15294 0.0423874 0.205559 0.205794 0.0875391 -0.00637547 -0.00638597 
0.087516 -0.00662851 0.0464204 0.0874714 -0.00715875 0.0999928 0.0874032 -0.00669402 0.153532 
0.0875382 -0.00639177 0.206338 0.087579 0.0464008 -0.00654322 0.0875746 0.0464032 0.206561 
0.0874673 0.100025 -0.00724521 0.0875421 0.0999709 0.207192 0.0873294 0.153567 -0.00660653 
0.0873259 0.153504 0.206544 0.087521 0.206327 -0.0063845 0.0875039 0.206584 0.0463943 
0.0875508 0.207187 0.0999964 0.08746 0.206688 0.153565 0.0875402 0.206348 0.206392 
0.13261 -0.00553472 -0.00582198 0.131393 -0.00612859 0.0470771 0.130899 -0.00623478 0.100003 
0.131285 -0.00606957 0.152968 0.1326 -0.00552855 0.205817 0.131463 0.0470799 -0.00612519 
0.13144 0.0470904 0.206076 0.130788 0.100037 -0.00627894 0.130777 0.100058 0.206225 
0.131334 0.152938 -0.00600246 0.131301 0.152934 0.205978 0.132641 0.205543 -0.00581998 
0.131417 0.206107 0.0470262 0.130875 0.206133 0.100029 0.131308 0.20618 0.152881 
0.132645 0.205563 0.205793 0.175 0 0 0.175 0 0.05 
0.175 0 0.1 0.175 0 0.15 0.175 0 0.2 
0.175 0.05 0 0.175 0.05 0.05 0.175 0.05 0.1 
0.175 0.05 0.15 0.175 0.05 0.2 0.175 0.1 0 
0.175 0.1 0.05 0.175 0.1 0.1 0.175 0.1 0.15 
0.175 0.1 0.2 0.175 0.15 0 0.175 0.15 0.05 
0.175 0.15 0.1 0.175 0.15 0.15 0.175 0.15 0.2 
0.175 0.2 0 0.175 0.2 0.05 0.175 0.2 0.1 
0.175 0.2 0.15 0.175 0.2 0.2 0 0 0.0166667 
0 0 0.0333333 0 0.0166667 0 0 0.0333333 0 
0.0123279 -0.00323104 -0.00419544 0.026956 -0.00484759 -0.00490082 0.0142757 -0.00378067 0.0139158 
0.0283999 -0.00486261 0.0300917 0 0 0.0666667 0 0 0.0833333 
0 0.0166667 0.0333333 0 0.0333333 0.0166667 0 0.0166667 0.05 
0 0.0333333 0.05 0 0.0166667 0.0666667 0 0.0333333 0.0833333 
0.0147778 -0.00390392 0.0486549 0.0289591 -0.00510384 0.0477429 0 0 0.116667 
0 0 0.133333 0 0.0166667 0.1 0 0.0333333 0.1 
0.014805 -0.00401021 0.0828469 0.0291044 -0.00506057 0.0651992 0.0149844 -0.00381964 0.100028 
0.0294488 -0.00521911 0.100023 0.0148108 -0.00398533 0.117206 0.0291082 -0.00504292 0.134832 
0 0 0.166667 0 0 0.183333 0 0.0166667 0.133333 
0 0.0333333 0.116667 0 0.0166667 0.15 0 0.0333333 0.15 
0 0.0166667 0.166667 0 0.0333333 0.183333 0.0147914 -0.00385772 0.151351 
0.0289662 -0.00507306 0.15228 0 0.0166667 0.2 0 0.0333333 0.2 
0.0142843 -0.00377086 0.186075 0.0284135 -0.00484479 0.169914 0.0123339 -0.0032331 0.204181 
0.0269694 -0.00485249 0.20489 0 0.05 0.0166667 0 0.05 0.0333333 
0 0.0666667 0 0 0.0833333 0 0 0.0666667 0.0166667 
0 0.0833333 0.0333333 0.0138495 0.0317053 -0.00384587 0.0278978 0.0126601 -0.00504107 
0.0152592 0.0314022 0.0138813 0.0296531 0.0126149 0.0301174 0.0147404 0.0488107 -0.00380194 
0.0291659 0.0478239 -0.00531516 0.0148808 0.0661115 -0.00395999 0.029256 0.08266 -0.00522305 
0 0.05 0.0666667 0 0.05 0.0833333 0 0.0666667 0.05 
0 0.0833333 0.05 0.0156295 0.031296 0.0486844 0.0300828 0.0125187 0.0477524 
0.0155452 0.0486342 0.0312874 0.0299775 0.0477371 0.0124403 0.0157478 0.0658222 0.0312493 
0.0303795 0.0826095 0.0124314 0.0304265 0.0301456 0.0476604 0.0588823 0.0110661 0.046644 
0.0306868 0.0300751 0.0651524 0.059175 0.0109472 0.0822136 0.0305086 0.047662 0.0300489 
0.0588678 0.0466989 0.0110285 0.0307239 0.0650886 0.0300459 0.0591604 0.0822505 0.0109503 
0 0.05 0.116667 0 0.05 0.133333 0 0.0666667 0.0833333 
0 0.0833333 0.0666667 0 0.0666667 0.1 0 0.0833333 0.1 
0 0.0666667 0.116667 0 0.0833333 0.133333 0.0157559 0.0312684 0.0829543 
0.0302834 0.0124466 0.0651767 0.0157606 0.0312349 0.100031 0.0302894 0.0124508 0.10002 
0.0157836 0.0312745 0.117123 0.0303197 0.0124364 0.134884 0.0308456 0.030062 0.10001 
0.0593154 0.0109073 0.10003 0.0308226 0.0300301 0.117444 0.0591138 0.0110091 0.135544 
0.0310881 0.0650712 0.0650885 0.0595204 0.0822196 0.0287282 0 0.05 0.166667 
0 0.05 0.183333 0 0.0666667 0.15 0 0.0833333 0.15 
0.0156673 0.0313368 0.151394 0.0301456 0.0125504 0.152295 0.0155633 0.0486504 0.16873 
0.0299811 0.0477456 0.187586 0.0157302 0.0658224 0.168756 0.0303562 0.0826179 0.187567 
0.0306102 0.0301296 0.152408 0.0589355 0.0111089 0.153303 0.0305278 0.0476859 0.169977 
0.0588439 0.046677 0.188989 0.0306998 0.0651218 0.169966 0.0591645 0.0822115 0.189067 
0 0.0666667 0.183333 0 0.0833333 0.166667 0 0.0666667 0.2 
0 0.0833333 0.2 0.0152679 0.0314016 0.186142 0.0296875 0.0126303 0.169894 
0.0138494 0.0316935 0.203865 0.0279107 0.0126484 0.205043 0.0147333 0.0488058 0.203812 
0.0291564 0.0478227 0.205334 0.0148714 0.0661163 0.203967 0.0292462 0.0826803 0.205223 
0 0.1 0.0166667 0 0.1 0.0333333 0 0.116667 0 
0 0.133333 0 0.0146992 0.10003 -0.00406002 0.0290214 0.0999507 -0.00500734 
0 0.1 0.0666667 0 0.1 0.0833333 0 0.116667 0.0333333 
0 0.133333 0.0166667 0 0.116667 0.05 0 0.133333 0.05 
0 0.116667 0.0666667 0 0.133333 0.0833333 0.0157847 0.100001 0.0312348 
0.0304459 0.0999929 0.0123623 0.0157535 0.117122 0.0312537 0.0302538 0.134838 0.0124498 
0.0308934 0.0999994 0.0299691 0.0592841 0.0999947 0.010925 0.0308259 0.117412 0.029971 
0.059083 0.135511 0.0110197 0 0.1 0.116667 0 0.1 0.133333 
0 0.116667 0.1 0 0.133333 0.1 0.0311559 0.0651058 0.0999919 
0.0595121 0.0287417 0.0999826 0.0311112 0.0651739 0.117417 0.0594346 0.0287551 0.135546 
0.0311278 0.100002 0.065121 0.0595307 0.100001 0.0287564 0.0312826 0.0999879 0.134887 
0.0595313 0.0999839 0.17129 0.0311069 0.117417 0.0651552 0.0594321 0.135512 0.0287713 
0.0311742 0.1174 0.134879 0.0594257 0.135628 0.171267 0.0312294 0.134887 0.0999978 
0.0595195 0.171279 0.0999653 0.0311492 0.134848 0.117392 0.0594167 0.171258 0.135565 
0.0601555 0.0999937 0.0999848 0.114887 0.100016 0.100005 0 0.1 0.166667 
0 0.1 0.183333 0 0.116667 0.133333 0 0.133333 0.116667 
0 0.116667 0.15 0 0.133333 0.15 0 0.116667 0.166667 
0 0.133333 0.183333 0.0157953 0.0999937 0.168698 0.0304601 0.099999 0.187572 
0.0157679 0.117076 0.168688 0.0302612 0.134798 0.187536 0.030961 0.0650843 0.152425 
0.0592641 0.0288075 0.153358 0.0308985 0.0999703 0.169951 0.0593322 0.100003 0.189118 
0.0308405 0.117396 0.169952 0.0590995 0.135575 0.189024 0.030943 0.134862 0.152391 
0.0592697 0.171198 0.153359 0 0.116667 0.2 0 0.133333 0.2 
0.0147094 0.100041 0.204042 0.02904 0.0999642 0.204976 0 0.15 0.0166667 
0 0.15 0.0333333 0 0.166667 0 0 0.183333 0 
0 0.166667 0.0166667 0 0.183333 0.0333333 0.0147642 0.13419 -0.00392728 
0.0291415 0.117346 -0.00514304 0.0149445 0.151181 -0.00375791 0.0293186 0.152187 -0.00526731 
0.0139241 0.168226 -0.00380293 0.027915 0.187344 -0.00500951 0.0152755 0.168539 0.0138837 
0.0296719 0.187434 0.0301395 0 0.15 0.0666667 0 0.15 0.0833333 
0 0.166667 0.05 0 0.183333 0.05 0.0156501 0.151387 0.031294 
0.0301358 0.152288 0.0124994 0.0156435 0.168707 0.0486928 0.0300972 0.187506 0.0477627 
0.0305847 0.152374 0.0301013 0.0588851 0.153252 0.0111069 0.0305197 0.16991 0.0476674 
0.058897 0.188936 0.0466531 0.0307288 0.169948 0.0651459 0.0591752 0.189037 0.0822025 
0 0.15 0.116667 0 0.15 0.133333 0 0.166667 0.0833333 
0 0.183333 0.0666667 0 0.166667 0.1 0 0.183333 0.1 
0 0.166667 0.116667 0 0.183333 0.133333 0.0157673 0.168726 0.0829495 
0.0302981 0.187573 0.0651738 0.015774 0.168764 0.100013 0.0302973 0.187559 0.100008 
0.0157797 0.168733 0.117094 0.0303089 0.187588 0.134867 0.030957 0.152408 0.0650855 
0.0592518 0.153311 0.0288184 0.0308814 0.169952 0.100003 0.0593144 0.189099 0.10002 
0.0308139 0.169977 0.117425 0.0590945 0.189006 0.135557 0 0.15 0.166667 
0 0.15 0.183333 0 0.166667 0.15 0 0.183333 0.15 
0.0156422 0.151332 0.168707 0.0301154 0.152258 0.187526 0.0156636 0.168661 0.151367 
0.0301309 0.18747 0.152277 0.0305696 0.152317 0.169928 0.0588613 0.153337 0.188948 
0.0306448 0.169906 0.152364 0.0589331 0.188909 0.153302 0 0.166667 0.183333 
0 0.183333 0.166667 0 0.166667 0.2 0 0.183333 0.2 
0.0147644 0.134169 0.203921 0.0291482 0.117338 0.205107 0.0149307 0.151163 0.20377 
0.0292974 0.152175 0.205285 0.0152807 0.16852 0.186124 0.029691 0.187399 0.169865 
0.0139218 0.168218 0.203809 0.027914 0.187347 0.205008 0 0.2 0.0166667 
0 0.2 0.0333333 0.012327 0.203177 -0.0041923 0.0269481 0.204843 -0.00488333 
0.0142823 0.203749 0.0139142 0.0283868 0.2049 0.0300929 0 0.2 0.0666667 
0 0.2 0.0833333 0.0147689 0.203902 0.0486609 0.0289361 0.205123 0.04776 
0 0.2 0.116667 0 0.2 0.133333 0.0148064 0.204008 0.0828405 
0.029104 0.205072 0.0652063 0.014982 0.20382 0.100014 0.0294494 0.205229 0.100011 
0.0148038 0.203995 0.11719 0.0290931 0.205067 0.134815 0 0.2 0.166667 
0 0.2 0.183333 0.0147765 0.203868 0.151348 0.0289379 0.205095 0.152257 
0.0142851 0.203735 0.18608 0.0283896 0.204873 0.169903 0.0123247 0.203171 0.204184 
0.0269405 0.204845 0.20487 0.0428028 -0.0056326 0.0117351 0.0431963 -0.00580333 0.0294321 
0.0428321 0.0118507 -0.00575374 0.043293 0.0294255 -0.00582945 0.0573843 -0.00609456 -0.00611734 
0.0724809 -0.00634844 -0.00632083 0.0577793 0.0113883 -0.00619104 0.0728444 0.0287445 -0.00653782 
0.0439853 -0.00601905 0.0647819 0.0440196 -0.00602007 0.0823878 0.0440417 0.0117614 0.0293805 
0.0440078 0.0294469 0.0116597 0.0580266 -0.00629371 0.0288896 0.0726332 -0.00637068 0.0111039 
0.0582588 -0.00648841 0.0466237 0.0728674 -0.00672513 0.0464359 0.0584552 -0.0065988 0.0643762 
0.0730121 -0.00698805 0.0820882 0.0585216 0.0112146 0.0289084 0.0730136 0.028756 0.0109466 
[...]
POINT_DATA 1524
VECTORS displacement float
0 0 0
0 0 0
0 0 0
0 0 0
0 0 0
0 0 0
0 0 0
0 0 0
0 0 0
0 0 0
0 0 0
0 0 0
0 0 0
0 0 0
0 0 0
0 0 0
0 0 0
0 0 0
0 0 0
0 0 0
0 0 0
0 0 0
0 0 0
0 0 0
0 0 0
-0.00763839 -0.00552651 -0.00584201
-0.00628541 -0.00597697 -0.0029477
-0.00592594 -0.00600257 1.22374e-05
-0.00627083 -0.00598727 0.00294768
-0.00761581 -0.00554867 0.00582235
-0.00629913 -0.0029175 -0.00600852
-0.00631154 -0.00292346 0.00603203
-0.00588181 1.2041e-05 -0.00619263
-0.00585926 2.47143e-05 0.0061563
-0.00629493 0.00290284 -0.00596778
-0.00631476 0.00292061 0.0059993
-0.00760497 0.0055133 -0.00582558
-0.00629043 0.00600272 -0.00296036
-0.00592002 0.00601549 2.79303e-06
-0.00627928 0.00600916 0.00294028
-0.00761256 0.00555897 0.00579447
-0.0124609 -0.00637547 -0.00638597
-0.012484 -0.00662851 -0.00357958
-0.0125286 -0.00715875 -7.23697e-06
-0.0125968 -0.00669402 0.00353217
-0.0124618 -0.00639177 0.00633844
-0.012421 -0.00359923 -0.00654322
-0.0124254 -0.00359683 0.00656059
-0.0125327 2.52994e-05 -0.00724521
-0.0124579 -2.91159e-05 0.00719192
-0.0126706 0.00356715 -0.00660653
-0.0126741 0.00350377 0.00654445
-0.012479 0.00632731 -0.0063845
-0.0124961 0.00658392 -0.00360574
-0.0124492 0.00718675 -3.62668e-06
-0.01254 0.00668779 0.0035649
-0.0124598 0.0063484 0.00639185
-0.0173898 -0.00553472 -0.00582198
-0.0186072 -0.00612859 -0.00292291
-0.0191008 -0.00623478 3.48864e-06
-0.0187152 -0.00606957 0.00296793
-0.0173999 -0.00552855 0.00581726
-0.0185371 -0.00292007 -0.00612519
-0.0185599 -0.00290957 0.00607631
-0.0192121 3.74527e-05 -0.00627894
-0.0192228 5.77685e-05 0.00622493
-0.0186659 0.00293797 -0.00600246
-0.0186987 0.0029338 0.00597782
-0.0173587 0.00554275 -0.00581998
-0.0185825 0.00610654 -0.00297379
-0.0191253 0.00613324 2.94314e-05
-0.0186923 0.00618049 0.00288054
-0.0173546 0.00556331 0.00579342
-0.025 0 0
-0.025 0 0
-0.025 0 0
-0.025 0 0
-0.025 0 0
-0.025 0 0
-0.025 0 0
-0.025 0 0
-0.025 0 0
-0.025 0 0
-0.025 0 0
-0.025 0 0
-0.025 0 0
-0.025 0 0
-0.025 0 0
-0.025 0 0
-0.025 0 0
-0.025 0 0
-0.025 0 0
-0.025 0 0
-0.025 0 0
-0.025 0 0
-0.025 0 0
-0.025 0 0
-0.025 0 0
0 0 0
0 0 0
0 0 0
0 0 0
-0.00433872 -0.00323104 -0.00419544
-0.00637731 -0.00484759 -0.00490082
-0.00239092 -0.00378067 -0.00275082
-0.00493347 -0.00486261 -0.00324163
0 0 0
0 0 0
0 0 0
0 0 0
0 0 0
0 0 0
0 0 0
0 0 0
-0.00188882 -0.00390392 -0.00134512
-0.00437426 -0.00510384 -0.00225706
0 0 0
0 0 0
0 0 0
0 0 0
-0.00186164 -0.00401021 -0.000486421
-0.00422895 -0.00506057 -0.00146746
-0.00168231 -0.00381964 2.84035e-05
-0.00388458 -0.00521911 2.28842e-05
-0.00185589 -0.00398533 0.000538985
-0.00422515 -0.00504292 0.00149893
0 0 0
0 0 0
0 0 0
0 0 0
0 0 0
0 0 0
0 0 0
0 0 0
-0.00187528 -0.00385772 0.00135053
-0.00436708 -0.00507306 0.00227995
0 0 0
0 0 0
-0.00238232 -0.00377086 0.0027419
-0.00491988 -0.00484479 0.00324694
-0.00433279 -0.0032331 0.00418113
-0.00636396 -0.00485249 0.00488953
0 0 0
0 0 0
0 0 0
0 0 0
0 0 0
0 0 0
-0.00281714 -0.00162803 -0.00384587
-0.00543549 -0.00400656 -0.00504107
-0.00140744 -0.00193115 -0.00278539
-0.00368021 -0.00405177 -0.00321592
-0.00192631 -0.00118934 -0.00380194
-0.00416743 -0.00217613 -0.00531516
-0.00178584 -0.000555125 -0.00395999
-0.00407737 -0.000673323 -0.00522305
0 0 0
0 0 0
0 0 0
0 0 0
-0.0010372 -0.00203731 -0.00131562
-0.0032505 -0.00414795 -0.00224765
-0.00112144 -0.00136583 -0.00204596
-0.00335585 -0.00226291 -0.00422632
-0.000918905 -0.000844518 -0.00208401
-0.00295378 -0.000723805 -0.00423526
-0.00290687 -0.00318769 -0.00233963
-0.00778439 -0.00560052 -0.00335605
-0.00264649 -0.00325825 -0.00151431
-0.00749166 -0.00571944 -0.00111976
-0.00282475 -0.00233797 -0.00328443
-0.00779888 -0.00330108 -0.00563818
-0.00260947 -0.00157811 -0.00328739
-0.00750629 -0.00108284 -0.00571641
0 0 0
0 0 0
0 0 0
0 0 0
0 0 0
0 0 0
0 0 0
0 0 0
-0.000910818 -0.00206496 -0.000379073
-0.00304993 -0.0042201 -0.00148998
-0.0009061 -0.0020984 3.06603e-05
-0.00304395 -0.00421587 1.95958e-05
-0.000883097 -0.00205886 0.000456029
-0.00301363 -0.00423025 0.00155069
-0.00248772 -0.00327133 1.01729e-05
-0.00735123 -0.00575936 3.0051e-05
-0.00251074 -0.00330328 0.000776936
-0.00755289 -0.00565754 0.00221039
-0.00224527 -0.00159551 -0.00157815
-0.00714628 -0.00111376 -0.00460517
0 0 0
0 0 0
0 0 0
0 0 0
-0.000999379 -0.00199655 0.00139386
-0.00318773 -0.00411623 0.00229475
-0.0011034 -0.00134958 0.00206344
-0.00335221 -0.00225437 0.00425242
-0.0009365 -0.000844276 0.00208927
-0.00297716 -0.000715454 0.00423371
-0.00272312 -0.00320376 0.00240832
-0.00773114 -0.00555773 0.00330337
-0.00280555 -0.00231413 0.00331055
-0.00782275 -0.00332296 0.00565561
-0.00263355 -0.00154488 0.0032998
-0.00750219 -0.00112187 0.00573347
0 0 0
0 0 0
0 0 0
0 0 0
-0.00139873 -0.00193174 0.00280845
-0.00364579 -0.00403638 0.00322717
-0.00281732 -0.00163984 0.00386487
-0.00542268 -0.00401827 0.00504296
-0.0019334 -0.00119422 0.00381197
-0.00417695 -0.00217729 0.00533411
-0.00179527 -0.000550361 0.00396733
-0.00408713 -0.000653035 0.00522255
0 0 0
0 0 0
0 0 0
0 0 0
-0.00196746 3.02352e-05 -0.00406002
-0.00431192 -4.92719e-05 -0.00500734
0 0 0
0 0 0
0 0 0
0 0 0
0 0 0
0 0 0
0 0 0
0 0 0
-0.000881997 9.637e-07 -0.00209853
-0.00288738 -7.09974e-06 -0.00430433
-0.000913145 0.000455655 -0.00207964
-0.00307957 0.00150428 -0.0042169
-0.00243998 -6.51756e-07 -0.00336425
-0.0073826 -5.34816e-06 -0.00574169
-0.00250743 0.000745623 -0.00336236
-0.00758369 0.00217813 -0.00564694
0 0 0
0 0 0
0 0 0
0 0 0
-0.00217747 -0.00156092 -8.0843e-06
-0.00715457 -0.00459163 -1.74335e-05
-0.00222212 -0.00149281 0.000750425
-0.00723212 -0.00457826 0.00221253
-0.00220549 2.24865e-06 -0.00154571
-0.00713597 1.30465e-06 -0.00457693
-0.00205074 -1.20795e-05 0.0015535
-0.00713534 -1.61375e-05 0.00462318
-0.00222644 0.000750298 -0.00151149
-0.00723455 0.0021787 -0.00456207
-0.00215909 0.000733185 0.00154524
-0.007241 0.00229429 0.00460048
-0.00210392 0.00155358 -2.19981e-06
-0.00714714 0.00461245 -3.47508e-05
-0.00218415 0.00151433 0.000724967
-0.00724994 0.00459169 0.00223198
-0.00651122 -6.31689e-06 -1.51957e-05
-0.0184465 1.55861e-05 5.21681e-06
0 0 0
0 0 0
0 0 0
0 0 0
0 0 0
0 0 0
0 0 0
0 0 0
-0.000871369 -6.27981e-06 0.00203143
-0.00287326 -1.05093e-06 0.00423914
-0.000898793 0.000409694 0.0020215
-0.00307211 0.0014647 0.00420261
-0.00237231 -0.00158239 0.00242454
-0.00740259 -0.00452584 0.00335773
-0.00243479 -2.97517e-05 0.00328412
-0.00733446 2.76528e-06 0.00578479
-0.00249287 0.000729531 0.00328563
-0.00756719 0.00224134 0.0056906
-0.00239028 0.00152894 0.00239084
-0.00739694 0.00453121 0.00335943
0 0 0
0 0 0
-0.00195727 4.09733e-05 0.00404192
-0.00429336 -3.57753e-05 0.0049758
0 0 0
0 0 0
0 0 0
0 0 0
0 0 0
0 0 0
-0.0019025 0.000856208 -0.00392728
-0.00419182 0.000679715 -0.00514304
-0.00172215 0.0011807 -0.00375791
-0.00401474 0.00218732 -0.00526731
-0.00274255 0.00155917 -0.00380293
-0.0054183 0.0040104 -0.00500951
-0.0013912 0.00187223 -0.00278301
-0.00366145 0.00410108 -0.0031938
0 0 0
0 0 0
0 0 0
0 0 0
-0.00101661 0.00138658 -0.00203932
-0.00319755 0.00228807 -0.00416723
-0.00102318 0.00204082 -0.00130719
-0.00323609 0.00417302 -0.0022373
-0.00274863 0.00237442 -0.00323207
-0.00778155 0.00325249 -0.00555972
-0.00281363 0.0032435 -0.00233263
-0.00776964 0.0056031 -0.00334687
-0.0026045 0.00328156 -0.00152072
-0.00749146 0.00570354 -0.00113085
0 0 0
0 0 0
0 0 0
0 0 0
0 0 0
0 0 0
0 0 0
0 0 0
-0.00089937 0.00205969 -0.000383886
-0.00303522 0.00423958 -0.00149285
-0.000892629 0.0020974 1.33464e-05
-0.00303608 0.00422553 8.29978e-06
-0.000887001 0.00206612 0.000427029
-0.00302439 0.00425502 0.00153392
-0.00237637 0.00240794 -0.00158121
-0.00741485 0.00331081 -0.00451494
-0.00245191 0.0032855 2.94646e-06
-0.00735231 0.00576612 1.98101e-05
-0.00251944 0.00330987 0.000758149
-0.00757216 0.00567246 0.00222336
0 0 0
0 0 0
0 0 0
0 0 0
-0.00102444 0.00133221 0.00204048
-0.00321792 0.0022578 0.00419283
-0.00100308 0.00199401 0.00136721
-0.00320239 0.00413713 0.00227651
-0.00276376 0.00231724 0.00326176
-0.00780539 0.00333725 0.00561443
-0.00268857 0.00323895 0.00236445
-0.00773361 0.00557578 0.00330209
0 0 0
0 0 0
0 0 0
0 0 0
-0.00190231 0.000835799 0.00392123
-0.00418513 0.000671452 0.0051074
-0.00173592 0.00116347 0.00376987
-0.00403597 0.0021748 0.00528516
-0.00138601 0.00185289 0.00279057
-0.00364237 0.00406546 0.00319856
-0.00274488 0.00155127 0.0038091
-0.0054193 0.00401407 0.00500781
0 0 0
0 0 0
-0.00433969 0.00317686 -0.0041923
-0.00638522 0.00484304 -0.00488333
-0.00238437 0.00374882 -0.00275249
-0.00494652 0.00489964 -0.00324039
0 0 0
0 0 0
-0.00189776 0.00390244 -0.00133913
-0.00439725 0.00512271 -0.00224002
0 0 0
0 0 0
-0.00186029 0.00400845 -0.000492812
-0.00422931 0.00507243 -0.00146036
-0.00168465 0.00382037 1.37904e-05
-0.00388394 0.00522929 1.07414e-05
-0.00186287 0.00399464 0.000523106
-0.00424023 0.0050668 0.00148169
0 0 0
0 0 0
-0.00189014 0.00386812 0.00134784
-0.00439545 0.00509489 0.00225708
-0.00238156 0.0037345 0.00274642
-0.00494376 0.00487272 0.00323644
-0.00434194 0.00317133 0.0041837
-0.00639284 0.00484515 0.00486988
-0.00719718 -0.0056326 -0.00493154
-0.00680371 -0.00580333 -0.00390119
-0.0071679 -0.00481592 -0.00575374
-0.00670698 -0.0039078 -0.00582945
-0.00928236 -0.00609456 -0.00611734
-0.0108524 -0.00634844 -0.00632083
-0.00888741 -0.0052784 -0.00619104
-0.010489 -0.00458879 -0.00653782
-0.00601471 -0.00601905 -0.00188473
-0.00598045 -0.00602007 -0.000945574
-0.00595831 -0.0049053 -0.00395284
-0.00599219 -0.00388639 -0.00500701
-0.0086401 -0.00629371 -0.00444378
-0.0107001 -0.00637068 -0.00556279
-0.00840788 -0.00648841 -0.00337631
-0.010466 -0.00672513 -0.00356407
-0.0082115 -0.0065988 -0.00229043
-0.0103212 -0.00698805 -0.00124509
-0.00814503 -0.00545202 -0.00442498
-0.0103198 -0.00457735 -0.00572003
-0.00596881 -0.00602745 0.000962668
-0.00599153 -0.00602485 0.00188849
-0.00803018 -0.00662794 1.12311e-05
-0.0102397 -0.007022 8.15894e-06
-0.00679095 -0.00580269 0.00389097
-0.00718447 -0.0056387 0.00491551
-0.00591524 -0.0049048 0.00394476
-0.00597358 -0.00389433 0.00502843
-0.00815272 -0.00658821 0.00222796
-0.010252 -0.00697406 0.00122191
-0.00843813 -0.00648517 0.00333154
-0.0105604 -0.00671845 0.00348803
-0.00862498 -0.00629737 0.00440776
-0.0106852 -0.00637269 0.00550713
-0.00811558 -0.00545424 0.00438858
-0.0103256 -0.0045815 0.00570851
-0.00714788 -0.00483889 0.00575031
-0.00669982 -0.00392757 0.00584942
-0.00926038 -0.00612745 0.00607801
-0.0108372 -0.00637472 0.00626757
-0.00886739 -0.00531149 0.00617676
-0.0104818 -0.00461338 0.00653595
-0.00608224 -0.00192069 -0.00604532
-0.00598738 -0.000943611 -0.00607103
-0.0083123 -0.00334882 -0.00652755
-0.0103673 -0.00355901 -0.0067039
-0.00610029 -0.00191442 0.00606191
-0.0059961 -0.000929238 0.00607278
-0.00833015 -0.00336925 0.00654982
-0.0103854 -0.00358269 0.00672335
-0.00599227 0.000937915 -0.00605528
-0.00609954 0.00190509 -0.00602055
-0.00809161 -0.00108649 -0.00665971
-0.0102958 -0.00237079 -0.00683821
-0.00808885 1.22777e-05 -0.00673602
-0.0103271 3.5668e-05 -0.00707637
-0.00806497 0.00112466 -0.00662796
-0.0103134 0.00239758 -0.00681771
-0.00598578 0.000944401 0.00602568
-0.00609664 0.00190305 0.00601366
-0.0080975 -0.00109743 0.00666837
-0.0103213 -0.00240373 0.00685942
-0.00806064 1.74131e-05 0.00671565
-0.0102762 1.30795e-05 0.00706429
-0.00805734 0.00114681 0.00664521
-0.0103035 0.00242798 0.00686086
-0.00668645 0.00393046 -0.00579778
-0.00715428 0.00483261 -0.00571825
-0.00594185 0.00391826 -0.00496199
-0.00592103 0.00496374 -0.00392919
-0.00841976 0.00328216 -0.00650443
-0.0105556 0.00345182 -0.0067329
-0.00594448 0.00393262 0.00497878
-0.00590513 0.00495061 0.00391285
-0.00669942 0.00396128 0.00581245
-0.00716238 0.00487061 0.00571339
-0.00843088 0.00334757 0.00654332
-0.0105618 0.00352474 0.00673757
-0.0071657 0.00564974 -0.00492915
-0.00678071 0.00584696 -0.00391229
-0.0088672 0.00526115 -0.00617366
-0.0105467 0.00452695 -0.00652176
-0.0092384 0.00608394 -0.0061123
-0.010829 0.00630655 -0.0063197
-0.00600279 0.00603893 -0.00189182
-0.00596565 0.00603431 -0.00095261
-0.00811173 0.005464 -0.00440481
-0.0103498 0.00452098 -0.00570372
-0.0085903 0.00630306 -0.00444299
-0.0106578 0.00633444 -0.0055518
-0.00838765 0.0065221 -0.00339162
-0.0104611 0.00671854 -0.00358572
-0.00818781 0.00659866 -0.0022901
-0.0102887 0.00695624 -0.00124299
-0.00597054 0.00604649 0.000953032
-0.00600205 0.0060543 0.0018812
-0.00802243 0.00662878 3.7952e-06
-0.0102171 0.00701809 4.36845e-06
-0.00678592 0.00583953 0.00387806
-0.00718179 0.00566221 0.00489435
-0.00810592 0.00548468 0.00437445
-0.0103656 0.00457863 0.00570477
-0.00815392 0.00660672 0.00222971
-0.0102409 0.0069554 0.00122077
-0.00840054 0.00651545 0.00332517
-0.0104927 0.00674024 0.00350057
-0.00859811 0.00632024 0.0043916
-0.0106568 0.00637604 0.00551826
-0.00887278 0.00533398 0.00616499
-0.0105392 0.00459739 0.00653663
-0.00925851 0.00615226 0.00606761
-0.0108297 0.00636665 0.00628609
-0.0124845 -0.00642066 -0.00558032
-0.0124867 -0.00651088 -0.00462764
-0.0124637 -0.00555345 -0.00639087
-0.0124476 -0.00463771 -0.00646145
-0.0141093 -0.00634846 -0.00625953
-0.0157256 -0.0060901 -0.00607513
-0.0142898 -0.00634794 -0.00549227
-0.0163566 -0.00626154 -0.00439769
-0.0125189 -0.00681698 -0.00243915
-0.0125557 -0.00700082 -0.00123238
-0.0125236 -0.00566121 -0.00462619
-0.0124981 -0.00459138 -0.00564201
-0.0125438 -0.00469694 -0.00470378
-0.0124991 -0.00237327 -0.00594412
-0.0144911 -0.00661529 -0.00351445
-0.0165194 -0.00643483 -0.00333011
-0.0148524 -0.00464722 -0.00465564
-0.0172476 -0.00220431 -0.00567591
-0.0125221 -0.00701442 0.0011994
-0.0125129 -0.00687261 0.00240287
-0.0125336 -0.0049851 -0.00247982
-0.0124817 -0.00247596 -0.00496211
-0.0124772 -0.00493818 0.00245879
-0.0125065 -0.00247491 0.00495467
-0.0146678 -0.00683308 -0.00123056
-0.0167001 -0.00651182 -0.0022758
-0.0146791 -0.00699949 7.73983e-06
-0.0168976 -0.00672021 7.22482e-06
-0.0147323 -0.00694026 0.00120447
-0.0168224 -0.00662462 0.00226198
-0.0151355 -0.00489727 -0.00239543
-0.0176488 -0.00224762 -0.00463521
-0.0150851 -0.00484938 0.00237209
-0.0176932 -0.00223859 0.00460412
-0.0178211 -0.00457656 -1.01548e-06
-0.0229056 -0.00155143 2.55565e-05
-0.0177936 -0.00459932 0.00112133
-0.0228274 -0.00160232 0.00156352
-0.0125075 -0.00649732 0.00457783
-0.0124785 -0.00640531 0.00553138
-0.0125279 -0.00565912 0.00459449
-0.0124987 -0.00457275 0.00563672
-0.012529 -0.00464585 0.00475656
-0.0125333 -0.00237075 0.00599257
-0.0145767 -0.00659505 0.00350954
-0.0166234 -0.00640403 0.00336173
-0.0148477 -0.00462366 0.00464348
-0.0172737 -0.00218206 0.00566054
-0.0124709 -0.00556157 0.0063581
-0.0124506 -0.00464134 0.0064453
-0.0142942 -0.00633186 0.00547735
-0.0163873 -0.00625225 0.00440607
-0.014124 -0.00633432 0.00624801
-0.0157405 -0.0060726 0.00607432
-0.0124869 -0.00247027 -0.00671985
-0.0124952 -0.00127118 -0.00693678
-0.0144616 -0.00458287 -0.0064837
-0.0161107 -0.00526341 -0.00614704
-0.0146605 -0.00455498 -0.00563126
-0.0168179 -0.00543904 -0.00436898
-0.0145505 -0.0035389 -0.00660134
-0.0165485 -0.00334356 -0.00640815
-0.0146009 -0.002418 -0.00671814
-0.0168788 -0.00117713 -0.00666826
-0.0124954 -0.00247109 0.00676066
-0.0124939 -0.00127432 0.00696855
-0.0146535 -0.00454205 0.00561972
-0.0168238 -0.00542112 0.00437064
-0.0144676 -0.00457512 0.00647554
-0.0161145 -0.00525108 0.006142
-0.0145614 -0.0035355 0.00660898
-0.0165653 -0.0033412 0.00640545
-0.0146171 -0.00241202 0.00672176
-0.0169347 -0.00115762 0.00664499
-0.0125091 0.00120258 -0.0070904
-0.012544 0.00241196 -0.00686028
-0.0124266 0.00245303 -0.00497073
-0.0124796 0.00496238 -0.00249014
-0.0147248 1.92457e-05 -0.00707885
-0.0169874 1.17645e-05 -0.00678024
-0.015062 0.00238006 -0.00488858
-0.0176893 0.0046373 -0.00226461
-0.0178315 -5.20741e-06 -0.00460622
-0.0228965 1.13377e-05 -0.00154792
-0.0177932 0.00112743 -0.00461279
-0.0228297 0.00157727 -0.00158934
-0.0124885 0.00117529 0.00702121
-0.0125469 0.00238327 0.00678491
-0.0125203 0.00247977 0.00494199
-0.0124812 0.00495309 0.00244239
-0.0124704 0.00237169 0.00597911
-0.0124464 0.00469437 0.00468838
-0.0147156 9.1485e-06 0.00703908
-0.0170023 2.23502e-05 0.00674726
-0.0151465 0.00239341 0.00485157
-0.0176683 0.00460255 0.00222032
-0.0149184 0.00230056 0.00593294
-0.0172071 0.00445773 0.00442669
-0.0178768 -2.19538e-06 0.0045603
-0.0228398 -1.53653e-05 0.00153536
-0.0176259 1.41365e-05 0.00572527
-0.0225716 -2.80144e-05 0.00334662
-0.0178852 0.00110703 0.0046076
-0.0227848 0.00152765 0.00155875
-0.0175326 0.00112458 0.00568538
-0.0224562 0.0014888 0.0033411
-0.0125157 0.0046058 -0.00644911
-0.0124706 0.00550749 -0.00638024
-0.0125084 0.00461387 -0.00563587
-0.0124721 0.00564357 -0.00459334
-0.0124803 0.00477152 -0.00464565
-0.0124948 0.00601426 -0.00238109
-0.0146233 0.00241974 -0.00683168
-0.016874 0.00114625 -0.00667071
-0.0145673 0.00351248 -0.00669986
-0.0165959 0.00332596 -0.00650448
-0.0144656 0.00451637 -0.00647021
-0.0160929 0.00527471 -0.00615726
-0.0146461 0.00453321 -0.00567009
-0.0167684 0.00547151 -0.00438291
-0.0148093 0.00464955 -0.00467002
-0.0172644 0.00569071 -0.00222248
-0.01747 0.00337119 -0.00453093
-0.0226499 0.0024297 -0.00154404
-0.0125162 0.00458531 0.00562805
-0.0124839 0.00565047 0.00461545
-0.0125157 0.00456792 0.00639464
-0.0124706 0.00550629 0.0063559
-0.0146747 0.00242486 0.00678575
-0.0169288 0.00114004 0.00665087
-0.0146315 0.00356831 0.00663894
-0.0166698 0.00338044 0.00646692
-0.0146208 0.0045289 0.00566459
-0.016787 0.00548324 0.00437896
-0.0144917 0.0045526 0.00647862
-0.016087 0.00529606 0.00615145
-0.0171392 0.00334317 0.00555676
-0.0222466 0.00228048 0.00329399
-0.0124609 0.00636067 -0.00558173
-0.0124609 0.0064612 -0.00463786
-0.014121 0.00630552 -0.00630177
-0.0157256 0.00610032 -0.0060921
-0.0142871 0.00631961 -0.00552705
-0.0163625 0.00627001 -0.00439578
-0.0125306 0.00677738 -0.00246758
-0.0125104 0.0069848 -0.00124628
-0.014564 0.00662347 -0.00355734
-0.0166407 0.00642681 -0.00338119
-0.0125153 0.00697284 0.00119673
-0.0125247 0.00682364 0.00241025
-0.0147333 0.0068731 -0.00123985
-0.0168712 0.00655705 -0.00225792
-0.014713 0.00701234 7.44202e-06
-0.0169558 0.00669277 1.63288e-05
-0.0147164 0.00683903 0.00122642
-0.0168533 0.00652733 0.00225512
-0.0178371 0.00456899 -1.05143e-05
-0.022818 0.00156387 -5.54371e-06
-0.0175989 0.00571651 -4.01525e-06
-0.0225204 0.00336711 -6.28631e-06
-0.0124846 0.00649028 0.00462173
-0.0124702 0.00639412 0.00557607
-0.014611 0.00660256 0.00353663
-0.0166502 0.00642941 0.00335543
-0.0142959 0.0063391 0.00551462
-0.0163721 0.00630105 0.00440737
-0.0141278 0.00632395 0.0062861
-0.0157118 0.00611379 0.00607262
-0.0178027 -0.00567475 -0.00492545
-0.0181643 -0.00589539 -0.0038941
-0.0178091 -0.00485634 -0.00573483
-0.0182507 -0.0039551 -0.00585337
-0.0185732 -0.00486182 -0.00488501
-0.0206292 -0.00319011 -0.00418658
-0.0195324 -0.00403103 -0.00502718
-0.0222198 -0.00154535 -0.00380786
-0.0188972 -0.00622952 -0.00190391
-0.019034 -0.00623998 -0.000939476
-0.0189818 -0.00501315 -0.00396415
-0.0189684 -0.00394971 -0.00504607
-0.0196202 -0.00400701 -0.00405042
-0.0196097 -0.00185709 -0.00521093
-0.020002 -0.00487448 -0.00323732
-0.0225996 -0.00374536 -0.00274353
-0.0205208 -0.00511639 -0.00223775
-0.0230915 -0.00383112 -0.00133356
-0.0206428 -0.00513959 -0.00147561
-0.0231119 -0.00397687 -0.000504561
-0.0212839 -0.00406932 -0.00318754
-0.0235958 -0.00183589 -0.00277109
-0.0217603 -0.00415561 -0.0022347
-0.0240051 -0.00191649 -0.00133164
-0.0219933 -0.00430769 -0.00151461
-0.0241345 -0.00202914 -0.000420989
-0.0222361 -0.00321036 -0.0023425
-0.0242734 -0.00091965 -0.00137069
-0.0223994 -0.00327812 -0.00148579
-0.0243873 -0.000860039 -0.000416357
-0.0190816 -0.00612544 0.000983085
-0.0190042 -0.00610959 0.00196424
-0.0202048 -0.00413236 -0.00195678
-0.0201468 -0.00195503 -0.00412709
-0.0210747 -0.00534949 -1.33243e-05
-0.0233091 -0.00382642 -1.67328e-05
-0.0220329 -0.00439426 -7.84231e-06
-0.0241147 -0.00212261 -5.34671e-06
-0.0224574 -0.00340332 1.51074e-06
-0.0243788 -0.000935771 -6.50632e-06