# vtk DataFile Version 3.0
vtk output at time 1
ASCII
DATASET UNSTRUCTURED_GRID
POINTS 1524 float
0 0 0 0 0 0.05 0 0 0.1 
0 0 0.15 0 0 0.2 0 0.05 0 
0 0.05 0.05 0 0.05 0.1 0 0.05 0.15 
0 0.05 0.2 0 0.1 0 0 0.1 0.05 
0 0.1 0.1 0 0.1 0.15 0 0.1 0.2 
0 0.15 0 0 0.15 0.05 0 0.15 0.1 
0 0.15 0.15 0 0.15 0.2 0 0.2 0 
0 0.2 0.05 0 0.2 0.1 0 0.2 0.15 
0 0.2 0.2 0.0333274 -0.00950905 -0.0102608 0.0365751 -0.0104174 0.0445787 
0.0378413 -0.0103482 0.100056 0.0367551 -0.010404 0.155426 0.0333744 -0.00959297 0.210209 
0.0366377 0.044745 -0.0104766 0.0365768 0.044693 0.210529 0.0381209 0.100031 -0.0106806 
0.0380486 0.100054 0.210705 0.0367874 0.155244 -0.0103619 0.0366333 0.155334 0.21043 
0.0334952 0.20954 -0.0101835 0.0366522 0.210463 0.0445951 0.0378418 0.210423 0.100023 
0.0367385 0.210487 0.155378 0.0334489 0.209696 0.210103 0.0750618 -0.0113386 -0.0113035 
0.074958 -0.0117741 0.0434845 0.0749277 -0.0128248 0.0999863 0.074671 -0.0119379 0.156512 
0.0750836 -0.0113058 0.211342 0.0751882 0.0433857 -0.0116429 0.0751685 0.043456 0.211726 
0.0749872 0.100048 -0.0130143 0.0751048 0.0999795 0.212931 0.0745517 0.1567 -0.0118253 
0.0746626 0.156474 0.211751 0.0750685 0.21139 -0.0112376 0.0750614 0.21177 0.0434921 
0.0751965 0.212848 0.100011 0.0748938 0.211928 0.156516 0.0751087 0.211287 0.211388 
0.11658 -0.00959481 -0.0102019 0.113689 -0.0106954 0.0446381 0.112027 -0.0107802 0.100067 
0.113413 -0.0105631 0.155505 0.116557 -0.0095463 0.210218 0.113742 0.0446617 -0.0107135 
0.113671 0.0447137 0.210575 0.111757 0.100087 -0.0108986 0.111755 0.100109 0.210778 
0.113511 0.155398 -0.0104874 0.113364 0.155338 0.21046 0.116685 0.209618 -0.0101922 
0.113713 0.210649 0.0445518 0.112094 0.210639 0.100044 0.113461 0.210712 0.155337 
0.116677 0.209633 0.21018 0.15 0 0 0.15 0 0.05 
0.15 0 0.1 0.15 0 0.15 0.15 0 0.2 
0.15 0.05 0 0.15 0.05 0.05 0.15 0.05 0.1 
0.15 0.05 0.15 0.15 0.05 0.2 0.15 0.1 0 
0.15 0.1 0.05 0.15 0.1 0.1 0.15 0.1 0.15 
0.15 0.1 0.2 0.15 0.15 0 0.15 0.15 0.05 
0.15 0.15 0.1 0.15 0.15 0.15 0.15 0.15 0.2 
0.15 0.2 0 0.15 0.2 0.05 0.15 0.2 0.1 
0.15 0.2 0.15 0.15 0.2 0.2 0 0 0.0166667 
0 0 0.0333333 0 0.0166667 0 0 0.0333333 0 
0.00445667 -0.00561595 -0.00677937 0.018187 -0.00841949 -0.00849228 0.0103667 -0.00702149 0.0116075 
0.0222642 -0.00859442 0.027479 0 0 0.0666667 0 0 0.0833333 
0 0.0166667 0.0333333 0 0.0333333 0.0166667 0 0.0166667 0.05 
0 0.0333333 0.05 0 0.0166667 0.0666667 0 0.0333333 0.0833333 
0.0119594 -0.00707458 0.0475836 0.0236549 -0.00893071 0.0458589 0 0 0.116667 
0 0 0.133333 0 0.0166667 0.1 0 0.0333333 0.1 
0.0122831 -0.00700121 0.0825745 0.0242619 -0.0087084 0.0639967 0.0131145 -0.00659625 0.100065 
0.0252658 -0.00893165 0.100065 0.012336 -0.00694623 0.11754 0.0243725 -0.00863713 0.136076 
0 0 0.166667 0 0 0.183333 0 0.0166667 0.133333 
0 0.0333333 0.116667 0 0.0166667 0.15 0 0.0333333 0.15 
0 0.0166667 0.166667 0 0.0333333 0.183333 0.0120375 -0.00699432 0.152403 
0.0237667 -0.00886534 0.154156 0 0.0166667 0.2 0 0.0333333 0.2 
0.0104019 -0.00703641 0.188334 0.0223588 -0.0085806 0.172487 0.00450364 -0.00567348 0.206721 
0.0182391 -0.0084926 0.208421 0 0.05 0.0166667 0 0.05 0.0333333 
0 0.0666667 0 0 0.0833333 0 0 0.0666667 0.0166667 
0 0.0833333 0.0333333 0.0095028 0.0303449 -0.00686999 0.0205902 0.00955792 -0.00888873 
0.0130231 0.0297255 0.0114127 0.024862 0.00946128 0.0273261 0.0118789 0.0478338 -0.00685282 
0.0239885 0.0460803 -0.00931263 0.0124594 0.0657652 -0.00700311 0.0247792 0.0821568 -0.00897112 
0 0.05 0.0666667 0 0.05 0.0833333 0 0.0666667 0.05 
0 0.0833333 0.05 0.0143261 0.0297015 0.0475453 0.0262014 0.00934685 0.0458091 
0.0140853 0.0475372 0.0296314 0.0258582 0.0459001 0.00920524 0.0146954 0.0651628 0.0296562 
0.0272396 0.08205 0.00931338 0.027228 0.0276658 0.0457264 0.0505809 0.00673759 0.0438666 
0.0279703 0.0275761 0.0639131 0.0515878 0.0065659 0.0812763 0.0273513 0.0457968 0.0274489 
0.0506721 0.0439798 0.0066314 0.0280971 0.0638624 0.0274963 0.051709 0.0813521 0.00658218 
0 0.05 0.116667 0 0.05 0.133333 0 0.0666667 0.0833333 
0 0.0833333 0.0666667 0 0.0666667 0.1 0 0.0833333 0.1 
0 0.0666667 0.116667 0 0.0833333 0.133333 0.0147554 0.0297833 0.0826417 
0.0268501 0.00927555 0.0639125 0.0148357 0.0297538 0.100049 0.0270832 0.00944671 0.100047 
0.0148129 0.0297972 0.117473 0.0269845 0.00930476 0.136185 0.0285436 0.0276424 0.100014 
0.0520003 0.00650923 0.10007 0.0283722 0.0275945 0.118082 0.0515069 0.00664402 0.137449 
0.0290367 0.06387 0.063883 0.0526325 0.0813371 0.0251329 0 0.05 0.166667 
0 0.05 0.183333 0 0.0666667 0.15 0 0.0833333 0.15 
0.0143989 0.0297433 0.152564 0.0263799 0.00939431 0.154249 0.0141069 0.0475171 0.170405 
0.0258365 0.0458581 0.190849 0.0146293 0.0651261 0.170393 0.0271196 0.0820396 0.190753 
0.0276636 0.0275927 0.154391 0.0508666 0.00681274 0.156084 0.0273693 0.0457718 0.172596 
0.050602 0.0439453 0.193414 0.0279282 0.0638582 0.172545 0.0515355 0.0812687 0.19348 
0 0.0666667 0.183333 0 0.0833333 0.166667 0 0.0666667 0.2 
0 0.0833333 0.2 0.0130274 0.0296837 0.188622 0.0249759 0.00945882 0.172668 
0.00949178 0.0302694 0.206898 0.020621 0.00947621 0.208864 0.0118448 0.0477735 0.206881 
0.0239376 0.0460166 0.209358 0.012391 0.0657267 0.207051 0.0246729 0.0821537 0.209028 
0 0.1 0.0166667 0 0.1 0.0333333 0 0.116667 0 
0 0.133333 0 0.0121274 0.100105 -0.0070868 0.0245005 0.0999516 -0.00849544 
0 0.1 0.0666667 0 0.1 0.0833333 0 0.116667 0.0333333 
0 0.133333 0.0166667 0 0.116667 0.05 0 0.133333 0.05 
0 0.116667 0.0666667 0 0.133333 0.0833333 0.0148397 0.100032 0.0297313 
0.0274292 0.100027 0.00926593 0.0147461 0.117507 0.0297113 0.0268523 0.136081 0.0092929 
0.028595 0.100023 0.0274792 0.0521227 0.100012 0.00654085 0.028389 0.11805 0.0274732 
0.0515246 0.137347 0.00670035 0 0.1 0.116667 0 0.1 0.133333 
0 0.116667 0.1 0 0.133333 0.1 0.0293847 0.0640269 0.0999892 
0.0525642 0.0251716 0.0999909 0.0291092 0.0641435 0.117992 0.0522841 0.0251657 0.137433 
0.0292755 0.100015 0.0640359 0.0527631 0.100042 0.0251978 0.0296683 0.0999961 0.136003 
0.0525763 0.099994 0.174925 0.0291119 0.117998 0.0640716 0.0523727 0.137322 0.0252278 
0.0292583 0.117961 0.136001 0.0521854 0.137558 0.174852 0.0295127 0.136009 0.0999965 
0.052557 0.174867 0.099963 0.0291745 0.135949 0.117925 0.052247 0.174893 0.137427 
0.0546675 0.10003 0.099977 0.0954287 0.100012 0.100036 0 0.1 0.166667 
0 0.1 0.183333 0 0.116667 0.133333 0 0.133333 0.116667 
0 0.116667 0.15 0 0.133333 0.15 0 0.116667 0.166667 
0 0.133333 0.183333 0.0148546 0.100016 0.170168 0.027398 0.100043 0.190688 
0.0147704 0.117437 0.170197 0.0268087 0.136056 0.190709 0.0286023 0.0638627 0.154325 
0.0517374 0.0252332 0.156135 0.0285839 0.0999794 0.172439 0.0519584 0.100027 0.193559 
0.028388 0.118037 0.172438 0.0513573 0.137483 0.193381 0.0285712 0.136094 0.154239 
0.0517755 0.174819 0.156084 0 0.116667 0.2 0 0.133333 0.2 
0.0121075 0.100125 0.207092 0.0244472 0.0999731 0.2085 0 0.15 0.0166667 
0 0.15 0.0333333 0 0.166667 0 0 0.183333 0 
0 0.166667 0.0166667 0 0.183333 0.0333333 0.0121706 0.134909 -0.00696428 
0.0246174 0.117933 -0.00879157 0.0125207 0.152182 -0.00676492 0.0245375 0.153965 -0.0092354 
0.00983934 0.169496 -0.0068299 0.0207722 0.190452 -0.00880536 0.0130711 0.17013 0.0113898 
0.0249483 0.190608 0.0273809 0 0.15 0.0666667 0 0.15 0.0833333 
0 0.166667 0.05 0 0.183333 0.05 0.0143794 0.152543 0.0296306 
0.026393 0.154176 0.00928206 0.0143538 0.170319 0.0475509 0.0262598 0.190704 0.0458381 
0.0276682 0.154291 0.0275136 0.0508919 0.155952 0.00683552 0.0274306 0.172454 0.0457243 
0.0507235 0.193271 0.0439356 0.0280405 0.172506 0.063882 0.0515837 0.1934 0.0812692 
0 0.15 0.116667 0 0.15 0.133333 0 0.166667 0.0833333 
0 0.183333 0.0666667 0 0.166667 0.1 0 0.183333 0.1 
0 0.166667 0.116667 0 0.183333 0.133333 0.01476 0.170262 0.0826218 
0.0268789 0.190794 0.063899 0.0148358 0.170317 0.100012 0.0270605 0.190649 0.100018 
0.0147886 0.170258 0.11742 0.0269338 0.19079 0.136153 0.028642 0.154292 0.0638324 
0.0518332 0.156003 0.0252726 0.0285525 0.172457 0.0999985 0.051947 0.193501 0.100052 
0.0283232 0.172484 0.118039 0.0514471 0.193412 0.13743 0 0.15 0.166667 
0 0.15 0.183333 0 0.166667 0.15 0 0.183333 0.15 
0.0143367 0.152491 0.170382 0.0262743 0.154184 0.190776 0.0143815 0.170279 0.15252 
0.026326 0.190681 0.154207 0.0275089 0.154267 0.17251 0.0506875 0.156124 0.193265 
0.0277235 0.172523 0.154315 0.0508772 0.19326 0.156031 0 0.166667 0.183333 
0 0.183333 0.166667 0 0.166667 0.2 0 0.183333 0.2 
0.0121399 0.134895 0.206971 0.0245461 0.117946 0.208774 0.0124555 0.152194 0.206804 
0.0244128 0.154004 0.209287 0.0130637 0.170142 0.188626 0.0249849 0.190607 0.172613 
0.00979997 0.169534 0.206847 0.0207245 0.190539 0.208787 0 0.2 0.0166667 
0 0.2 0.0333333 0.00458965 0.205466 -0.00681498 0.018293 0.208419 -0.00841541 
0.0104294 0.206908 0.0115653 0.0222812 0.20863 0.0275107 0 0.2 0.0666667 
0 0.2 0.0833333 0.011932 0.207066 0.0475438 0.0236219 0.208944 0.0458889 
0 0.2 0.116667 0 0.2 0.133333 0.0122546 0.207041 0.0825336 
0.0242605 0.208756 0.0639903 0.0130698 0.206647 0.100026 0.0252334 0.209012 0.100028 
0.0122728 0.207011 0.117516 0.0242923 0.208724 0.136043 0 0.2 0.166667 
0 0.2 0.183333 0.01196 0.207032 0.152443 0.0236552 0.20892 0.154109 
0.010423 0.20693 0.188396 0.022295 0.208633 0.172448 0.00452641 0.20551 0.206767 
0.0182331 0.208503 0.208348 0.034272 -0.00981089 0.00794917 0.0352845 -0.0101082 0.0262845 
0.0343119 0.00818575 -0.0101091 0.0355531 0.0263753 -0.0102316 0.0470737 -0.0106813 -0.0108004 
0.0610955 -0.011219 -0.0111952 0.0479633 0.00728616 -0.0109074 0.0619879 0.02502 -0.0115645 
0.0375716 -0.0105383 0.0632476 0.0377215 -0.0104648 0.0816567 0.0370421 0.00797137 0.0261806 
0.0370434 0.0263442 0.00778291 0.0485802 -0.0110674 0.0253081 0.0614456 -0.0112804 0.00672106 
0.0491876 -0.0113978 0.0438434 0.0619893 -0.0118799 0.0435122 0.0498174 -0.0115632 0.0624983 
0.0625367 -0.0123303 0.0810622 0.0496444 0.00697696 0.0253252 0.062349 0.0250384 0.00645016 
[...]
POINT_DATA 1524
VECTORS displacement float
0 0 0
0 0 0
0 0 0
0 0 0
0 0 0
0 0 0
0 0 0
0 0 0
0 0 0
0 0 0
0 0 0
0 0 0
0 0 0
0 0 0
0 0 0
0 0 0
0 0 0
0 0 0
0 0 0
0 0 0
0 0 0
0 0 0
0 0 0
0 0 0
0 0 0
-0.0166726 -0.00950905 -0.0102608
-0.0134249 -0.0104174 -0.00542132
-0.0121587 -0.0103482 5.56016e-05
-0.0132449 -0.010404 0.00542596
-0.0166256 -0.00959297 0.010209
-0.0133623 -0.00525502 -0.0104766
-0.0134232 -0.00530698 0.0105293
-0.0118791 3.05864e-05 -0.0106806
-0.0119514 5.3739e-05 0.0107051
-0.0132126 0.00524423 -0.0103619
-0.0133667 0.0053336 0.0104296
-0.0165048 0.00953955 -0.0101835
-0.0133478 0.0104631 -0.00540489
-0.0121582 0.0104225 2.33579e-05
-0.0132615 0.0104869 0.00537789
-0.0165511 0.00969602 0.0101031
-0.0249382 -0.0113386 -0.0113035
-0.025042 -0.0117741 -0.00651552
-0.0250723 -0.0128248 -1.36705e-05
-0.025329 -0.0119379 0.00651234
-0.0249164 -0.0113058 0.0113424
-0.0248118 -0.00661432 -0.0116429
-0.0248315 -0.00654404 0.011726
-0.0250128 4.75769e-05 -0.0130143
-0.0248952 -2.05405e-05 0.0129308
-0.0254483 0.00670018 -0.0118253
-0.0253374 0.0064744 0.0117514
-0.0249315 0.0113899 -0.0112376
-0.0249386 0.0117698 -0.00650794
-0.0248035 0.0128483 1.0512e-05
-0.0251062 0.0119285 0.00651635
-0.0248913 0.0112874 0.0113882
-0.0334202 -0.00959481 -0.0102019
-0.0363106 -0.0106954 -0.00536192
-0.0379733 -0.0107802 6.6723e-05
-0.0365867 -0.0105631 0.0055049
-0.0334433 -0.0095463 0.0102183
-0.0362581 -0.00533834 -0.0107135
-0.0363295 -0.00528633 0.0105749
-0.0382431 8.72294e-05 -0.0108986
-0.0382449 0.000109227 0.0107781
-0.0364888 0.00539816 -0.0104874
-0.0366357 0.00533777 0.0104601
-0.0333154 0.00961836 -0.0101922
-0.0362866 0.0106494 -0.00544823
-0.0379064 0.0106387 4.36115e-05
-0.0365387 0.0107123 0.0053374
-0.0333229 0.0096332 0.0101795
-0.05 0 0
-0.05 0 0
-0.05 0 0
-0.05 0 0
-0.05 0 0
-0.05 0 0
-0.05 0 0
-0.05 0 0
-0.05 0 0
-0.05 0 0
-0.05 0 0
-0.05 0 0
-0.05 0 0
-0.05 0 0
-0.05 0 0
-0.05 0 0
-0.05 0 0
-0.05 0 0
-0.05 0 0
-0.05 0 0
-0.05 0 0
-0.05 0 0
-0.05 0 0
-0.05 0 0
-0.05 0 0
0 0 0
0 0 0
0 0 0
0 0 0
-0.01221 -0.00561595 -0.00677937
-0.0151463 -0.00841949 -0.00849228
-0.00630001 -0.00702149 -0.00505916
-0.0110692 -0.00859442 -0.00585436
0 0 0
0 0 0
0 0 0
0 0 0
0 0 0
0 0 0
0 0 0
0 0 0
-0.00470723 -0.00707458 -0.00241645
-0.00967845 -0.00893071 -0.0041411
0 0 0
0 0 0
0 0 0
0 0 0
-0.00438357 -0.00700121 -0.000758861
-0.00907148 -0.0087084 -0.00266993
-0.00355219 -0.00659625 6.4805e-05
-0.00806754 -0.00893165 6.53166e-05
-0.00433067 -0.00694623 0.000873644
-0.00896082 -0.00863713 0.00274317
0 0 0
0 0 0
0 0 0
0 0 0
0 0 0
0 0 0
0 0 0
0 0 0
-0.00462916 -0.00699432 0.00240292
-0.00956667 -0.00886534 0.00415577
0 0 0
0 0 0
-0.00626478 -0.00703641 0.00500105
-0.0109745 -0.0085806 0.00582058
-0.012163 -0.00567348 0.00672078
-0.0150943 -0.0084926 0.0084211
0 0 0
0 0 0
0 0 0
0 0 0
0 0 0
0 0 0
-0.00716387 -0.00298842 -0.00686999
-0.0127431 -0.00710875 -0.00888873
-0.00364353 -0.00360781 -0.00525395
-0.00847135 -0.00720538 -0.00600728
-0.00478775 -0.00216622 -0.00685282
-0.00934479 -0.00391972 -0.00931263
-0.00420724 -0.000901426 -0.00700311
-0.00855415 -0.00117649 -0.00897112
0 0 0
0 0 0
0 0 0
0 0 0
-0.00234055 -0.00363181 -0.00245472
-0.00713188 -0.00731981 -0.00419088
-0.00258141 -0.00246278 -0.00370191
-0.00747512 -0.00409987 -0.00746143
-0.00197126 -0.00150384 -0.00367713
-0.00609376 -0.00128333 -0.00735329
-0.00610534 -0.00566757 -0.00427363
-0.0160858 -0.00992907 -0.00613342
-0.00536298 -0.00575725 -0.00275358
-0.0150788 -0.0101008 -0.00205703
-0.00598202 -0.0042032 -0.00588446
-0.0159945 -0.00602023 -0.0100353
-0.00523619 -0.0028043 -0.00583701
-0.0149577 -0.0019812 -0.0100845
0 0 0
0 0 0
0 0 0
0 0 0
0 0 0
0 0 0
0 0 0
0 0 0
-0.00191126 -0.00355002 -0.000691665
-0.00648323 -0.00739112 -0.0027542
-0.00183092 -0.00357957 4.90062e-05
-0.00625012 -0.00721996 4.68567e-05
-0.00185378 -0.00353613 0.000806165
-0.00634885 -0.00736191 0.00285199
-0.00478971 -0.00569095 1.35677e-05
-0.0146664 -0.0101574 6.96866e-05
-0.00496112 -0.00573878 0.00141497
-0.0151598 -0.0100226 0.00411553
-0.00429667 -0.00279664 -0.00278369
-0.0140342 -0.00199626 -0.00820042
0 0 0
0 0 0
0 0 0
0 0 0
-0.00226778 -0.00359001 0.00256416
-0.00695339 -0.00727236 0.00424893
-0.00255972 -0.00248287 0.0037388
-0.00749686 -0.0041419 0.0075152
-0.00203739 -0.00154058 0.0037263
-0.00621371 -0.00129378 0.00741926
-0.00566969 -0.0057406 0.00439073
-0.0158001 -0.00985392 0.00608375
-0.00596406 -0.00422818 0.00592957
-0.0160647 -0.00605468 0.0100808
-0.00540515 -0.00280847 0.00587785
-0.0151312 -0.00206466 0.0101468
0 0 0
0 0 0
0 0 0
0 0 0
-0.0036393 -0.00364964 0.00528894
-0.00835742 -0.00720785 0.00600163
-0.00717489 -0.00306391 0.0068983
-0.0127124 -0.00719046 0.00886403
-0.00482186 -0.00222652 0.00688077
-0.0093957 -0.00398339 0.00935782
-0.00427568 -0.000939919 0.00705141
-0.00866044 -0.0011796 0.0090276
0 0 0
0 0 0
0 0 0
0 0 0
-0.00453931 0.000105263 -0.0070868
-0.00883286 -4.83591e-05 -0.00849544
0 0 0
0 0 0
0 0 0
0 0 0
0 0 0
0 0 0
0 0 0
0 0 0
-0.00182701 3.19616e-05 -0.00360198
-0.00590416 2.71783e-05 -0.00740074
-0.00192057 0.000840063 -0.00362206
-0.00648104 0.00274806 -0.00737377
-0.00473835 2.31116e-05 -0.00585418
-0.014544 1.22656e-05 -0.0101258
-0.00494435 0.00138333 -0.00586016
-0.0151421 0.00401361 -0.00996631
0 0 0
0 0 0
0 0 0
0 0 0
-0.00394863 -0.00263978 -1.07719e-05
-0.0141025 -0.00816177 -9.09701e-06
-0.00422411 -0.00252316 0.00132516
-0.0143826 -0.0081676 0.00409935
-0.00405783 1.53495e-05 -0.00263079
-0.0139035 4.1819e-05 -0.00813551
-0.00366498 -3.85749e-06 0.00266973
-0.0140904 -6.02545e-06 0.00825855
-0.0042214 0.00133089 -0.00259503
-0.014294 0.00398834 -0.00810555
-0.00407502 0.00129473 0.00266785
-0.0144812 0.00422487 0.00818555
-0.00382058 0.00267569 -3.48798e-06
-0.0141097 0.00820019 -3.70018e-05
-0.00415883 0.00261599 0.00125807
-0.0144197 0.00822671 0.00409327
-0.0119992 2.98776e-05 -2.29927e-05
-0.0379047 1.18631e-05 3.59109e-05
0 0 0
0 0 0
0 0 0
0 0 0
0 0 0
0 0 0
0 0 0
0 0 0
-0.00181211 1.58999e-05 0.00350099
-0.00593534 4.33206e-05 0.00735471
-0.00189632 0.000770511 0.00352988
-0.00652468 0.00272246 0.00737544
-0.00473106 -0.00280394 0.00432493
-0.0149293 -0.00810011 0.00613512
-0.00474942 -2.06086e-05 0.0057723
-0.0147083 2.65538e-05 0.0102261
-0.00494537 0.00137064 0.00577092
-0.0153094 0.00414958 0.0100481
-0.00476214 0.00276065 0.00423893
-0.0148912 0.00815231 0.00608371
0 0 0
0 0 0
-0.00455916 0.000124857 0.00709249
-0.00888609 -2.68845e-05 0.00849998
0 0 0
0 0 0
0 0 0
0 0 0
0 0 0
0 0 0
-0.00449607 0.00157534 -0.00696428
-0.00871597 0.00126653 -0.00879157
-0.00414599 0.00218239 -0.00676492
-0.00879585 0.00396517 -0.0092354
-0.00682733 0.00282892 -0.0068299
-0.0125612 0.00711875 -0.00880536
-0.00359559 0.00346328 -0.00527685
-0.00838504 0.00727503 -0.00595243
0 0 0
0 0 0
0 0 0
0 0 0
-0.00228729 0.00254316 -0.00370274
-0.00694031 0.00417629 -0.0073846
-0.00231284 0.00365233 -0.00244914
-0.0070735 0.00737108 -0.00416192
-0.00566516 0.0042908 -0.00581969
-0.0157748 0.00595181 -0.00983115
-0.00590273 0.00578698 -0.00427572
-0.0159432 0.00993767 -0.00606441
-0.0052928 0.0058389 -0.00278469
-0.015083 0.0100669 -0.0020641
0 0 0
0 0 0
0 0 0
0 0 0
0 0 0
0 0 0
0 0 0
0 0 0
-0.00190668 0.00359576 -0.000711535
-0.00645439 0.00746085 -0.00276767
-0.00183087 0.00365059 1.22068e-05
-0.00627288 0.00731568 1.82508e-05
-0.00187804 0.00359143 0.000753204
-0.00639953 0.00745651 0.00281948
-0.00469132 0.00429207 -0.00283423
-0.0148335 0.00600273 -0.0080607
-0.00478082 0.00579026 -1.49625e-06
-0.0147197 0.0101674 5.16915e-05
-0.00501015 0.00581736 0.00137243
-0.0152195 0.0100782 0.00409672
0 0 0
0 0 0
0 0 0
0 0 0
-0.00233 0.00249147 0.00371551
-0.007059 0.00418352 0.00744229
-0.00228516 0.00361211 0.00252039
-0.00700738 0.00734803 0.00420696
-0.00582439 0.00426707 0.00584308
-0.0159791 0.00612425 0.00993132
-0.00560986 0.00585595 0.00431449
-0.0157895 0.00992629 0.00603127
0 0 0
0 0 0
0 0 0
0 0 0
-0.00452676 0.00156125 0.00697069
-0.00878721 0.00127981 0.00877404
-0.00421121 0.0021936 0.00680388
-0.00892049 0.00400432 0.00928658
-0.00360294 0.00347569 0.00529307
-0.00834847 0.00727317 0.00594633
-0.0068667 0.00286742 0.00684671
-0.0126089 0.00720607 0.00878737
0 0 0
0 0 0
-0.012077 0.00546632 -0.00681498
-0.0150404 0.00841946 -0.00841541
-0.00623729 0.00690774 -0.00510136
-0.0110521 0.00862969 -0.00582264
0 0 0
0 0 0
-0.00473469 0.00706631 -0.00245615
-0.00971144 0.00894403 -0.00411105
0 0 0
0 0 0
-0.00441207 0.00704105 -0.000799738
-0.00907287 0.00875554 -0.00267632
-0.00359682 0.00664672 2.59846e-05
-0.00809994 0.00901202 2.83363e-05
-0.00439392 0.00701119 0.000849619
-0.00904107 0.00872402 0.00270995
0 0 0
0 0 0
-0.00470665 0.00703227 0.00244254
-0.00967816 0.00892044 0.00410923
-0.00624369 0.00693048 0.0050625
-0.0110383 0.00863278 0.00578177
-0.0121403 0.00551019 0.00676702
-0.0151002 0.00850327 0.00834811
-0.015728 -0.00981089 -0.0087175
-0.0147155 -0.0101082 -0.00704885
-0.0156881 -0.00848091 -0.0101091
-0.0144469 -0.00695808 -0.0102316
-0.019593 -0.0106813 -0.0108004
-0.0222379 -0.011219 -0.0111952
-0.0187033 -0.00938051 -0.0109074
-0.0213455 -0.00831329 -0.0115645
-0.0124284 -0.0105383 -0.00341907
-0.0122785 -0.0104648 -0.0016766
-0.0129579 -0.00869529 -0.0071527
-0.0129566 -0.00698911 -0.00888376
-0.0180865 -0.0110674 -0.00802525
-0.0218878 -0.0112804 -0.00994561
-0.0174791 -0.0113978 -0.0061566
-0.021344 -0.0118799 -0.00648784
-0.0168493 -0.0115632 -0.00416836
-0.0207966 -0.0123303 -0.00227111
-0.0170222 -0.00968971 -0.00800817
-0.0209843 -0.00829492 -0.0102165
-0.0121997 -0.0104355 0.00176777
-0.012268 -0.0104912 0.0034648
-0.0162693 -0.0115821 5.03424e-05
-0.0205995 -0.0124187 3.45656e-05
-0.0145942 -0.010109 0.00702142
-0.015648 -0.0098477 0.00867226
-0.0127967 -0.00871027 0.00714098
-0.0129144 -0.00703534 0.00892038
-0.0165875 -0.0115492 0.00411833
-0.0206154 -0.0123486 0.00227894
-0.0173993 -0.0113698 0.00611657
-0.0214816 -0.0118674 0.00641076
-0.0179704 -0.0110776 0.00800595
-0.0218239 -0.0112692 0.00995572
-0.016873 -0.00969 0.00799015
-0.0209864 -0.00826754 0.0102567
-0.0156565 -0.00855766 0.0100975
-0.0144548 -0.00702934 0.0102667
-0.019547 -0.0107322 0.010783
-0.0221993 -0.0112196 0.0112126
-0.0186827 -0.00943141 0.0109215
-0.0213517 -0.00830749 0.0116166
-0.0125834 -0.00345763 -0.0105303
-0.0121256 -0.0016914 -0.0105516
-0.0171349 -0.00607151 -0.011486
-0.0209726 -0.00650399 -0.0118797
-0.0126899 -0.00349136 0.010591
-0.0122489 -0.00170151 0.0106095
-0.0172047 -0.00610563 0.011539
-0.0210355 -0.00649968 0.0119393
-0.0120385 0.0017624 -0.0104802
-0.0124716 0.00348233 -0.0104488
-0.0163165 -0.0019858 -0.0116585
-0.0207721 -0.00437761 -0.0120989
-0.016242 3.50206e-05 -0.0117279
-0.0206596 6.64848e-05 -0.0124842
-0.0161783 0.00206795 -0.0115789
-0.0206946 0.00443579 -0.0120687
-0.0121406 0.00181219 0.0105001
-0.0125828 0.00353227 0.0104812
-0.0164484 -0.00201223 0.0117087
-0.0208744 -0.00439256 0.0121499
-0.0163343 4.49334e-05 0.0117555
-0.0206885 3.32404e-05 0.0124892
-0.0163035 0.00213908 0.0116625
-0.0207606 0.00449638 0.0121508
-0.0142711 0.00704645 -0.0101337
-0.0155475 0.00856662 -0.00999666
-0.0127137 0.00707491 -0.0087625
-0.0127773 0.00880805 -0.00707111
-0.0172717 0.00599775 -0.0113471
-0.0213517 0.00639881 -0.0118639
-0.0127827 0.00716505 0.00879123
-0.01273 0.00884823 0.00704747
-0.0143817 0.00716265 0.0101638
-0.0156206 0.00870514 0.0099852
-0.0173979 0.00613434 0.011427
-0.021395 0.00648653 0.0118926
-0.0156005 0.00988065 -0.00865256
-0.0146091 0.0102032 -0.00700754
-0.0185807 0.00942076 -0.0108184
-0.0214431 0.00831321 -0.0115064
-0.0194546 0.0107534 -0.0107158
-0.0221712 0.0112783 -0.0111064
-0.0123603 0.0105956 -0.00342919
-0.012236 0.0105277 -0.00170301
-0.0168447 0.00973028 -0.0079043
-0.0209664 0.00826643 -0.0101334
-0.0179086 0.011119 -0.00794517
-0.0217558 0.0113159 -0.00984085
-0.017312 0.0114643 -0.00612411
-0.0212011 0.0118877 -0.00645058
-0.0167072 0.0115688 -0.00413131
-0.0206473 0.0122572 -0.00222737
-0.0122203 0.010529 0.00173842
-0.0123035 0.0106009 0.00343622
-0.016247 0.0115995 2.58889e-05
-0.0205192 0.0123881 2.46847e-05
-0.0145842 0.0102295 0.00694119
-0.0156274 0.00995988 0.00857192
-0.0168116 0.0097986 0.00789939
-0.0210551 0.00831333 0.0101872
-0.0165683 0.0116237 0.00408271
-0.0205545 0.0123073 0.00223549
-0.0172674 0.011472 0.00605009
-0.0212426 0.011939 0.00636685
-0.0178661 0.0111807 0.00790798
-0.021712 0.011342 0.00989016
-0.0186563 0.00956106 0.0108372
-0.0214806 0.00836049 0.0115702
-0.0194975 0.0108809 0.0106795
-0.022152 0.011301 0.0111551
-0.0250128 -0.0114091 -0.00995493
-0.0250365 -0.0115581 -0.00833285
-0.024921 -0.00999588 -0.0113024
-0.0248722 -0.00843419 -0.0114553
-0.0277173 -0.0112819 -0.0110317
-0.0304696 -0.010741 -0.0106621
-0.0281563 -0.0112854 -0.00977814
-0.0319403 -0.0110551 -0.00789753
-0.0250905 -0.01215 -0.00450605
-0.0251278 -0.012513 -0.00231401
-0.0250843 -0.0101773 -0.00834065
-0.0249973 -0.00835579 -0.0100889
-0.0251017 -0.00855999 -0.00852059
-0.0249826 -0.00443666 -0.0107198
-0.0286659 -0.0117565 -0.00638584
-0.032395 -0.0113422 -0.00603517
-0.0294491 -0.00844374 -0.00839484
-0.0342469 -0.00406931 -0.0100259
-0.0250073 -0.0125976 0.0022333
-0.024994 -0.012338 0.0044481
-0.025112 -0.00910345 -0.00457416
-0.0249352 -0.00462369 -0.00902411
-0.0249374 -0.00896837 0.00457161
-0.0250122 -0.00454794 0.009028
-0.0292266 -0.0121094 -0.00226996
-0.0329932 -0.0114393 -0.00413815
-0.0293279 -0.0123467 -7.46138e-06
-0.0336748 -0.0117179 1.84989e-05
-0.0293627 -0.0123114 0.0022216
-0.0332482 -0.0116274 0.00416684
-0.0303392 -0.00882073 -0.00439748
-0.0353114 -0.00410567 -0.00824822
-0.0301983 -0.00870919 0.00438946
-0.0353878 -0.00406569 0.00819147
-0.0359485 -0.00814768 1.93236e-05
-0.0461872 -0.00269396 5.90762e-05
-0.035784 -0.00817754 0.00207372
-0.045864 -0.00284081 0.00275691
-0.0250736 -0.0115435 0.00835641
-0.0249792 -0.0113556 0.00999335
-0.025107 -0.0101736 0.00840231
-0.0250067 -0.00828164 0.0101805
-0.0250613 -0.00843904 0.00869447
-0.0250716 -0.00436948 0.0108248
-0.0289251 -0.0116907 0.00643725
-0.0326932 -0.0112586 0.00615203
-0.0294833 -0.00837868 0.00841338
-0.0343222 -0.00400474 0.00998893
-0.0249261 -0.00995021 0.0113461
-0.0248809 -0.00837751 0.0115089
-0.0281559 -0.0112128 0.0098462
-0.032041 -0.011004 0.00796797
-0.027714 -0.0111842 0.0111121
-0.0304757 -0.0106456 0.0107252
-0.0249634 -0.00459603 -0.0120037
-0.0249723 -0.00238099 -0.0124378
-0.0285136 -0.00834753 -0.0114542
-0.0313172 -0.00941668 -0.0107872
-0.0289862 -0.0082839 -0.0100564
-0.0329546 -0.00971529 -0.0078697
-0.0287953 -0.00650391 -0.0116774
-0.0325256 -0.006111 -0.0112449
-0.0290065 -0.0044926 -0.0119107
-0.0335362 -0.00218101 -0.0117023
-0.0249878 -0.00453283 0.0120894
-0.0249879 -0.00234373 0.0124816
-0.028983 -0.00822014 0.0100841
-0.0329986 -0.00964403 0.00792074
-0.0285153 -0.00827208 0.0114881
-0.0312974 -0.00932904 0.010819
-0.0288291 -0.00644394 0.0117215
-0.0325797 -0.00605789 0.011256
-0.0290433 -0.00442632 0.011926
-0.0336685 -0.0021308 0.0116463
-0.024937 0.00232636 -0.0127299
-0.0250406 0.00458432 -0.0123161
-0.0246963 0.00460265 -0.00900302
-0.0248285 0.00906233 -0.00452655
-0.0293904 -1.68834e-05 -0.0125395
-0.0338733 -1.02686e-05 -0.0118834
-0.0300697 0.00442111 -0.00881691
-0.0352635 0.00828303 -0.00413554
-0.035917 -2.405e-05 -0.00821344
-0.0461541 4.56971e-06 -0.00262729
-0.035733 0.00207153 -0.00822996
-0.0458631 0.00278024 -0.00279896
-0.0249286 0.00224384 0.0126085
-0.0250281 0.00446832 0.0121849
-0.0250342 0.00459149 0.00897133
-0.0248462 0.00903014 0.00448501
-0.0249161 0.00440975 0.0107962
-0.0248155 0.00854386 0.00853435
-0.0293629 -9.91606e-06 0.0124507
-0.0338843 1.60955e-05 0.0117955
-0.0303469 0.00440397 0.00875389
-0.0352639 0.00820745 0.00410547
-0.0297027 0.00429945 0.010594
-0.0338866 0.00801953 0.00798673
-0.0360384 2.63602e-06 0.00812185
-0.0460064 -2.13656e-05 0.00261504
-0.0353481 9.95851e-06 0.0100994
-0.0452284 -1.09075e-05 0.0058431
-0.0359687 0.00202427 0.00821364
-0.0457436 0.00269361 0.00275601
-0.0350648 0.00204856 0.0100498
-0.0448581 0.00272973 0.00596121
-0.0250491 0.00853273 -0.0114866
-0.0249194 0.0100708 -0.0112812
-0.0249977 0.00855455 -0.0101117
-0.024911 0.0102626 -0.00827616
-0.0248938 0.00878833 -0.00841546
-0.0249054 0.010874 -0.00435281
-0.0290284 0.00451545 -0.012117
-0.0335672 0.00211719 -0.0117218
-0.028883 0.00652368 -0.0118629
-0.032596 0.0061308 -0.0114255
-0.0285391 0.00828781 -0.0114328
-0.0312415 0.00946197 -0.0108095
-0.0289642 0.00829716 -0.0101358
-0.0328078 0.00974261 -0.00788874
-0.029372 0.00847913 -0.00843196
-0.0342094 0.0100788 -0.00406871
-0.0346496 0.00615214 -0.00810434
-0.045343 0.0043203 -0.00278123
-0.0250514 0.0083551 0.0101656
-0.0249738 0.0101728 0.00840638
-0.0250529 0.00832434 0.0114343
-0.0249395 0.00991409 0.0113194
-0.0290965 0.00445677 0.0120226
-0.0336891 0.00208005 0.0116597
-0.0289568 0.00652305 0.0117855
-0.0327904 0.00615317 0.0113956
-0.028914 0.00822045 0.0101611
-0.0328703 0.00974722 0.0079212
-0.0285825 0.00826285 0.0114941
-0.0312416 0.00945563 0.0108461
-0.0338476 0.00610392 0.00990022
-0.0441595 0.00417754 0.00594019
-0.024891 0.0114106 -0.0099098
-0.0248926 0.0115619 -0.00830622
-0.0276621 0.0112688 -0.0111014
-0.0304023 0.0107911 -0.0106956
-0.0280532 0.0112884 -0.00983193
-0.0319027 0.0110621 -0.0078825
-0.0249889 0.0120991 -0.004492
-0.0249188 0.0124695 -0.00228567
-0.0287402 0.0117944 -0.0064417
-0.0326333 0.0113337 -0.0061249
-0.0249351 0.0124886 0.00220356
-0.0249656 0.0122219 0.00441314
-0.0292283 0.0121916 -0.00226043
-0.033299 0.0115598 -0.00410642
-0.0292227 0.0124229 2.52763e-05
-0.0336338 0.0117315 3.40834e-05
-0.0292066 0.0121599 0.00226673
-0.0332951 0.0115061 0.00415384
-0.035795 0.00814989 5.40988e-06
-0.0460351 0.00267949 1.04109e-05
-0.0351103 0.0101238 1.30473e-05
-0.0451465 0.00590297 8.36717e-06
-0.024958 0.0115541 0.00838648
-0.0249156 0.0113775 0.0100222
-0.0289456 0.0117307 0.00647223
-0.0327139 0.0113255 0.00613708
-0.0281231 0.0112433 0.00989258
-0.0319714 0.011097 0.00796296
-0.027715 0.0111937 0.0111637
-0.0304061 0.0107624 0.0107183
-0.034267 -0.00998191 -0.00868326
-0.0351827 -0.0103493 -0.00701406
-0.034265 -0.00866175 -0.0100593
-0.0354532 -0.007151 -0.0102927
-0.0347322 -0.00847729 -0.0083672
-0.0376848 -0.00552477 -0.00666656
-0.0372037 -0.00718192 -0.00882594
-0.0430217 -0.00280202 -0.00682167
-0.0372806 -0.0108906 -0.00345055
-0.0377652 -0.010853 -0.00166452
-0.0369643 -0.00894723 -0.0071806
-0.0369451 -0.00718629 -0.00897176
-0.0386977 -0.00722996 -0.00729752
-0.0389056 -0.00342126 -0.00913332
-0.0388133 -0.0085693 -0.00577187
-0.043764 -0.00690223 -0.0050002
-0.0401319 -0.0088665 -0.00403019
-0.0453435 -0.00686319 -0.00236684
-0.0406788 -0.00873182 -0.00264571
-0.0456267 -0.00686141 -0.000786422
-0.0415499 -0.00721049 -0.00591165
-0.0464183 -0.00339702 -0.0052396
-0.0430692 -0.00733113 -0.0041274
-0.0478282 -0.00345444 -0.00244885
-0.0437817 -0.00750203 -0.00279366
-0.0482599 -0.00351159 -0.000766102
-0.0442802 -0.00568695 -0.00427254
-0.048555 -0.0016483 -0.00241105
-0.0447894 -0.00571538 -0.00269684
-0.0488994 -0.00144637 -0.000750345
-0.0378953 -0.0106642 0.00184359
-0.0375741 -0.0106817 0.00362991
-0.0404559 -0.00730906 -0.00353308
-0.04028 -0.0035317 -0.0072751
-0.0418947 -0.00914197 -3.13399e-06
-0.0464523 -0.00658311 -3.25913e-05
-0.0439723 -0.00758861 6.02442e-06
-0.0482189 -0.0036528 -5.70868e-06
-0.0449961 -0.00590332 1.27034e-05
-0.0488779 -0.00153106 -4.84066e-05
-0.0449162 -0.00590331 0.00135493
-0.0486996 -0.00154592 0.00153593
-0.0353188 -0.0102464 0.00708905
-0.0343288 -0.00991066 0.00871478
-0.0369564 -0.00883717 0.00720761
-0.0369332 -0.00710386 0.00892846
-0.0385948 -0.00716881 0.00727533
-0.0389455 -0.00345905 0.00904796
-0.040788 -0.00881161 0.00269429
-0.0456042 -0.00695975 0.000736091
-0.0401742 -0.008987 0.00407571
-0.0452849 -0.00698594 0.00238275
-0.0388153 -0.00865511 0.00580863
-0.0436983 -0.00694094 0.00506705
-0.04369 -0.00760258 0.00278246
-0.0481567 -0.00364112 0.000735465
-0.0429504 -0.00748085 0.00415419