# vtk DataFile Version 3.0
vtk output at time 0.4
ASCII
DATASET UNSTRUCTURED_GRID
POINTS 1524 float
0 0 0 0 0 0.05 0 0 0.1 
0 0 0.15 0 0 0.2 0 0.05 0 
0 0.05 0.05 0 0.05 0.1 0 0.05 0.15 
0 0.05 0.2 0 0.1 0 0 0.1 0.05 
0 0.1 0.1 0 0.1 0.15 0 0.1 0.2 
0 0.15 0 0 0.15 0.05 0 0.15 0.1 
0 0.15 0.15 0 0.15 0.2 0 0.2 0 
0 0.2 0.05 0 0.2 0.1 0 0.2 0.15 
0 0.2 0.2 0.043971 -0.0045342 -0.00478004 0.0450318 -0.00490612 0.047605 
0.0452931 -0.00493893 0.10001 0.0450388 -0.00491589 0.152395 0.0439886 -0.00455212 0.204763 
0.0450167 0.047625 -0.00493304 0.0450065 0.0476203 0.204953 0.0453197 0.100012 -0.00509292 
0.0453391 0.100022 0.205062 0.0450186 0.152363 -0.00489963 0.0450033 0.152378 0.204928 
0.0439955 0.20452 -0.00476935 0.0450241 0.204928 0.0475926 0.0452977 0.204949 0.100003 
0.0450317 0.204933 0.152391 0.0439895 0.204557 0.204744 0.0900312 -0.0052271 -0.00523905 
0.0900162 -0.00544443 0.0470721 0.0899803 -0.00588446 0.0999949 0.0899269 -0.00549745 0.152886 
0.0900297 -0.00524263 0.205198 0.0900623 0.0470599 -0.00537327 0.0900591 0.0470596 0.205389 
0.0899741 0.100022 -0.00595577 0.0900345 0.0999752 0.205911 0.0898691 0.152909 -0.00542797 
0.089858 0.15286 0.205374 0.0900163 0.205186 -0.0052385 0.0900018 0.205409 0.04705 
0.0900422 0.205909 0.0999979 0.0899682 0.205493 0.152915 0.090031 0.205207 0.205243 
0.136009 -0.0045382 -0.00476406 0.135049 -0.00503108 0.0476256 0.134684 -0.00512772 0.100001 
0.134966 -0.00498173 0.15241 0.136001 -0.00453527 0.20476 0.135113 0.0476264 -0.00502769 
0.135099 0.0476334 0.204993 0.1346 0.100031 -0.0051604 0.134592 0.10005 0.205119 
0.135006 0.152388 -0.00492728 0.134986 0.152388 0.204907 0.136032 0.204543 -0.00476426 
0.135079 0.205013 0.0475803 0.134663 0.205044 0.100026 0.134988 0.205079 0.152341 
0.136036 0.204563 0.204742 0.18 0 0 0.18 0 0.05 
0.18 0 0.1 0.18 0 0.15 0.18 0 0.2 
0.18 0.05 0 0.18 0.05 0.05 0.18 0.05 0.1 
0.18 0.05 0.15 0.18 0.05 0.2 0.18 0.1 0 
0.18 0.1 0.05 0.18 0.1 0.1 0.18 0.1 0.15 
0.18 0.1 0.2 0.18 0.15 0 0.18 0.15 0.05 
0.18 0.15 0.1 0.18 0.15 0.15 0.18 0.15 0.2 
0.18 0.2 0 0.18 0.2 0.05 0.18 0.2 0.1 
0.18 0.2 0.15 0.18 0.2 0.2 0 0 0.0166667 
0 0 0.0333333 0 0.0166667 0 0 0.0333333 0 
0.0133872 -0.00263663 -0.0034347 0.0283691 -0.00396658 -0.00401442 0.0148686 -0.00306405 0.0144479 
0.0294771 -0.00398212 0.0307014 0 0 0.0666667 0 0 0.0833333 
0 0.0166667 0.0333333 0 0.0333333 0.0166667 0 0.0166667 0.05 
0 0.0333333 0.05 0 0.0166667 0.0666667 0 0.0333333 0.0833333 
0.0152343 -0.00318085 0.0489147 0.0299076 -0.00418569 0.0481705 0 0 0.116667 
0 0 0.133333 0 0.0166667 0.1 0 0.0333333 0.1 
0.0152453 -0.00328264 0.0829341 0.0300074 -0.00415892 0.0654775 0.01536 -0.00313172 0.100022 
0.0302688 -0.00429219 0.100018 0.0152479 -0.00326371 0.117106 0.030007 -0.00414737 0.134547 
0 0 0.166667 0 0 0.183333 0 0.0166667 0.133333 
0 0.0333333 0.116667 0 0.0166667 0.15 0 0.0333333 0.15 
0 0.0166667 0.166667 0 0.0333333 0.183333 0.015242 -0.00314479 0.15109 
0.02991 -0.00416252 0.151848 0 0.0166667 0.2 0 0.0333333 0.2 
0.0148742 -0.00305645 0.185546 0.0294858 -0.00396843 0.169303 0.0133909 -0.00263815 0.203424 
0.028379 -0.00397083 0.204005 0 0.05 0.0166667 0 0.05 0.0333333 
0 0.0666667 0 0 0.0833333 0 0 0.0666667 0.0166667 
0 0.0833333 0.0333333 0.0145134 0.0320225 -0.00314141 0.0291003 0.0134012 -0.00412632 
0.0156028 0.0317765 0.0144131 0.0304657 0.0133623 0.0307322 0.015198 0.0490426 -0.00309974 
0.0300762 0.0482353 -0.00435595 0.0153037 0.0662175 -0.003235 0.0301209 0.08279 -0.0042941 
0 0.05 0.0666667 0 0.05 0.0833333 0 0.0666667 0.05 
0 0.0833333 0.05 0.0158632 0.0316791 0.0489387 0.0307857 0.0132782 0.0481834 
0.0158022 0.0488943 0.0316734 0.0307101 0.0481649 0.0132123 0.015951 0.065981 0.0316383 
0.0310024 0.0827464 0.0131987 0.0310405 0.0307361 0.0481024 0.0604767 0.0120777 0.0472657 
0.0312353 0.0306756 0.065439 0.0606936 0.0119723 0.0824246 0.031109 0.0481015 0.0306586 
0.0604596 0.0473108 0.0120479 0.0312624 0.0653848 0.0306542 0.0606773 0.0824548 0.0119747 
0 0.05 0.116667 0 0.05 0.133333 0 0.0666667 0.0833333 
0 0.0833333 0.0666667 0 0.0666667 0.1 0 0.0833333 0.1 
0 0.0666667 0.116667 0 0.0833333 0.133333 0.0159543 0.0316488 0.0830261 
0.0309347 0.0132139 0.0654606 0.0159548 0.0316199 0.100025 0.0309305 0.0132065 0.100016 
0.0159758 0.0316515 0.117037 0.0309608 0.0132027 0.13459 0.0313493 0.0306583 0.100009 
0.0608007 0.0119373 0.100025 0.0313346 0.0306339 0.117297 0.0606464 0.0120267 0.135132 
0.0315361 0.0653677 0.0653827 0.060955 0.082426 0.0295589 0 0.05 0.166667 
0 0.05 0.183333 0 0.0666667 0.15 0 0.0833333 0.15 
0.015893 0.0317121 0.151126 0.0308327 0.0133041 0.151856 0.0158158 0.0489087 0.168341 
0.0307126 0.0481729 0.186809 0.0159379 0.0659829 0.168365 0.0309854 0.082754 0.186799 
0.0311811 0.0307255 0.151954 0.0605147 0.0121127 0.152691 0.0311238 0.0481229 0.169364 
0.060441 0.0472924 0.187967 0.0312483 0.065414 0.169357 0.060685 0.0824223 0.18804 
0 0.0666667 0.183333 0 0.0833333 0.166667 0 0.0666667 0.2 
0 0.0833333 0.2 0.0156101 0.0317761 0.185606 0.0304911 0.0133749 0.169277 
0.0145135 0.0320131 0.203157 0.0291099 0.0133914 0.204128 0.0151922 0.0490391 0.203108 
0.0300682 0.048235 0.204372 0.0152969 0.0662223 0.20324 0.030114 0.0828074 0.204293 
0 0.1 0.0166667 0 0.1 0.0333333 0 0.116667 0 
0 0.133333 0 0.0151592 0.100022 -0.003322 0.0299203 0.0999594 -0.00412477 
0 0.1 0.0666667 0 0.1 0.0833333 0 0.116667 0.0333333 
0 0.133333 0.0166667 0 0.116667 0.05 0 0.133333 0.05 
0 0.116667 0.0666667 0 0.133333 0.0833333 0.015977 0.0999988 0.0316186 
0.0310547 0.0999937 0.0131355 0.0159524 0.117034 0.0316379 0.0309099 0.134552 0.0132168 
0.0313869 0.0999987 0.0305844 0.06077 0.0999964 0.0119524 0.0313377 0.11727 0.0305868 
0.0606207 0.135107 0.0120342 0 0.1 0.116667 0 0.1 0.133333 
0 0.116667 0.1 0 0.133333 0.1 0.0315804 0.0653909 0.0999944 
0.0609469 0.0295678 0.0999858 0.0315518 0.0654471 0.117277 0.0608926 0.0295832 0.135135 
0.0315584 0.100002 0.0654038 0.0609575 0.100001 0.0295798 0.0316794 0.0999907 0.134602 
0.060962 0.0999867 0.170458 0.0315474 0.117277 0.0654335 0.0608886 0.135109 0.0295958 
0.0316012 0.117264 0.134596 0.060887 0.135203 0.170437 0.0316378 0.134603 0.0999995 
0.060953 0.17045 0.0999712 0.0315818 0.13457 0.117258 0.0608772 0.170427 0.135152 
0.0614244 0.0999948 0.0999879 0.11861 0.100013 0.100005 0 0.1 0.166667 
0 0.1 0.183333 0 0.116667 0.133333 0 0.133333 0.116667 
0 0.116667 0.15 0 0.133333 0.15 0 0.116667 0.166667 
0 0.133333 0.183333 0.0159846 0.0999933 0.168327 0.0310662 0.0999984 0.186811 
0.0159629 0.116997 0.168315 0.0309158 0.13452 0.186773 0.0314445 0.0653795 0.151974 
0.0607664 0.0296308 0.15274 0.0313913 0.0999755 0.169351 0.0608148 0.100002 0.188084 
0.0313492 0.117258 0.169352 0.0606363 0.135158 0.188003 0.0314291 0.134576 0.151948 
0.0607692 0.170373 0.152743 0 0.116667 0.2 0 0.133333 0.2 
0.0151669 0.10003 0.203306 0.0299352 0.0999705 0.204098 0 0.15 0.0166667 
0 0.15 0.0333333 0 0.166667 0 0 0.183333 0 
0 0.166667 0.0166667 0 0.183333 0.0333333 0.0152129 0.134022 -0.00320711 
0.0300253 0.117215 -0.0042297 0.0153525 0.150949 -0.00306315 0.0301907 0.151772 -0.00431537 
0.0145664 0.167924 -0.00310452 0.0291106 0.186601 -0.0041018 0.0156146 0.168178 0.0144163 
0.030479 0.18668 0.0307489 0 0.15 0.0666667 0 0.15 0.0833333 
0 0.166667 0.05 0 0.183333 0.05 0.0158799 0.151121 0.0316787 
0.0308272 0.151855 0.0132639 0.0158742 0.168325 0.0489454 0.0307955 0.186744 0.0481908 
0.0311597 0.151928 0.0307041 0.0604719 0.15265 0.0121108 0.0311127 0.16931 0.0481086 
0.0604848 0.187925 0.0472719 0.0312676 0.169343 0.0654344 0.0606934 0.188015 0.082415 
0 0.15 0.116667 0 0.15 0.133333 0 0.166667 0.0833333 
0 0.183333 0.0666667 0 0.166667 0.1 0 0.183333 0.1 
0 0.166667 0.116667 0 0.183333 0.133333 0.0159634 0.168347 0.0830225 
0.0309455 0.186802 0.0654585 0.0159654 0.168378 0.100011 0.0309367 0.1868 0.100007 
0.0159728 0.168354 0.117014 0.0309527 0.186817 0.134576 0.0314395 0.151961 0.0653821 
0.060754 0.152703 0.0296393 0.031378 0.169352 0.100003 0.060801 0.188069 0.100017 
0.0313279 0.169371 0.117282 0.0606308 0.187985 0.135144 0 0.15 0.166667 
0 0.15 0.183333 0 0.166667 0.15 0 0.183333 0.15 
0.0158736 0.151076 0.168322 0.0308118 0.15183 0.186759 0.01589 0.168286 0.151105 
0.0308215 0.186713 0.151842 0.0311524 0.15188 0.169324 0.0604556 0.152719 0.187937 
0.031208 0.169303 0.151918 0.060512 0.187902 0.152691 0 0.166667 0.183333 
0 0.183333 0.166667 0 0.166667 0.2 0 0.183333 0.2 
0.0152126 0.134006 0.203202 0.0300305 0.117208 0.2042 0.0153417 0.150936 0.203073 
0.0301739 0.151763 0.204331 0.0156186 0.168162 0.185589 0.0304934 0.186649 0.169255 
0.0145643 0.167918 0.203109 0.0291092 0.186605 0.2041 0 0.2 0.0166667 
0 0.2 0.0333333 0.0133845 0.202595 -0.00343234 0.0283616 0.203962 -0.00400338 
0.0148716 0.203041 0.0144466 0.0294663 0.204015 0.0306996 0 0.2 0.0666667 
0 0.2 0.0833333 0.0152268 0.203181 0.0489206 0.0298887 0.204204 0.0481832 
0 0.2 0.116667 0 0.2 0.133333 0.0152463 0.203281 0.08293 
0.0300064 0.204169 0.0654834 0.0153586 0.203132 0.100011 0.0302696 0.2043 0.100009 
0.0152431 0.203271 0.117094 0.029996 0.204166 0.134534 0 0.2 0.166667 
0 0.2 0.183333 0.0152314 0.203154 0.151087 0.0298893 0.204181 0.151831 
0.0148731 0.20303 0.185548 0.0294678 0.203993 0.169297 0.0133823 0.202591 0.203425 
0.0283554 0.203965 0.203992 0.044323 -0.00461619 0.0126372 0.0446248 -0.00475879 0.0301554 
0.0443481 0.0127279 -0.00471139 0.0447029 0.0301438 -0.00477898 0.0592968 -0.00499761 -0.00501289 
0.0746783 -0.0052056 -0.00518224 0.0596108 0.0123466 -0.00507558 0.0749633 0.0295814 -0.00536513 
0.0452227 -0.00494011 0.0651322 0.045249 -0.00494748 0.082562 0.0453014 0.0126577 0.0301136 
0.0452719 0.0301666 0.0125719 0.059801 -0.00516224 0.0297034 0.0747993 -0.00522367 0.0121111 
0.0599831 -0.00532649 0.0472467 0.0749843 -0.00552265 0.0470876 0.0601289 -0.00542188 0.064799 
0.075088 -0.00574627 0.0823166 0.0601976 0.012203 0.0297213 0.0751007 0.0295922 0.0119785 
[...]
POINT_DATA 1524
VECTORS displacement float
0 0 0
0 0 0
0 0 0
0 0 0
0 0 0
0 0 0
0 0 0
0 0 0
0 0 0
0 0 0
0 0 0
0 0 0
0 0 0
0 0 0
0 0 0
0 0 0
0 0 0
0 0 0
0 0 0
0 0 0
0 0 0
0 0 0
0 0 0
0 0 0
0 0 0
-0.006029 -0.0045342 -0.00478004
-0.00496823 -0.00490612 -0.00239496
-0.00470691 -0.00493893 9.93175e-06
-0.00496119 -0.00491589 0.00239506
-0.00601136 -0.00455212 0.00476346
-0.00498332 -0.002375 -0.00493304
-0.00499348 -0.00237968 0.0049531
-0.00468033 1.20393e-05 -0.00509292
-0.00466091 2.18483e-05 0.00506211
-0.00498139 0.00236318 -0.00489963
-0.00499675 0.00237775 0.00492811
-0.00600454 0.00451982 -0.00476935
-0.00497594 0.00492791 -0.00240736
-0.00470233 0.00494868 2.65322e-06
-0.00496829 0.00493283 0.00239067
-0.00601048 0.00455714 0.00474387
-0.00996879 -0.0052271 -0.00523905
-0.0099838 -0.00544443 -0.00292787
-0.0100197 -0.00588446 -5.08988e-06
-0.0100731 -0.00549745 0.00288628
-0.00997035 -0.00524263 0.00519814
-0.00993766 -0.00294007 -0.00537327
-0.00994093 -0.00294044 0.00538909
-0.0100259 2.17523e-05 -0.00595577
-0.00996546 -2.47614e-05 0.00591124
-0.0101309 0.00290946 -0.00542797
-0.010142 0.00285997 0.00537388
-0.00998371 0.00518644 -0.0052385
-0.00999821 0.00540862 -0.00295005
-0.00995778 0.0059091 -2.05364e-06
-0.0100318 0.00549321 0.00291501
-0.00996903 0.00520656 0.00524337
-0.0139911 -0.0045382 -0.00476406
-0.0149509 -0.00503108 -0.0023744
-0.0153156 -0.00512772 1.1439e-06
-0.0150337 -0.00498173 0.00240983
-0.0139989 -0.00453527 0.00475956
-0.0148872 -0.00237356 -0.00502769
-0.0149013 -0.00236664 0.00499277
-0.0153999 3.08967e-05 -0.0051604
-0.0154076 4.96003e-05 0.00511948
-0.0149943 0.00238782 -0.00492728
-0.0150136 0.0023885 0.00490745
-0.0139677 0.00454329 -0.00476426
-0.0149212 0.00501333 -0.00241968
-0.0153368 0.00504395 2.60556e-05
-0.0150122 0.00507946 0.00234141
-0.0139639 0.00456267 0.00474172
-0.02 0 0
-0.02 0 0
-0.02 0 0
-0.02 0 0
-0.02 0 0
-0.02 0 0
-0.02 0 0
-0.02 0 0
-0.02 0 0
-0.02 0 0
-0.02 0 0
-0.02 0 0
-0.02 0 0
-0.02 0 0
-0.02 0 0
-0.02 0 0
-0.02 0 0
-0.02 0 0
-0.02 0 0
-0.02 0 0
-0.02 0 0
-0.02 0 0
-0.02 0 0
-0.02 0 0
-0.02 0 0
0 0 0
0 0 0
0 0 0
0 0 0
-0.00327951 -0.00263663 -0.0034347
-0.00496425 -0.00396658 -0.00401442
-0.00179803 -0.00306405 -0.00221878
-0.00385626 -0.00398212 -0.00263194
0 0 0
0 0 0
0 0 0
0 0 0
0 0 0
0 0 0
0 0 0
0 0 0
-0.00143236 -0.00318085 -0.00108533
-0.00342574 -0.00418569 -0.00182949
0 0 0
0 0 0
0 0 0
0 0 0
-0.00142133 -0.00328264 -0.00039919
-0.00332592 -0.00415892 -0.00118917
-0.00130669 -0.00313172 2.18729e-05
-0.00306454 -0.00429219 1.78422e-05
-0.00141874 -0.00326371 0.000439759
-0.00332634 -0.00414737 0.0012138
0 0 0
0 0 0
0 0 0
0 0 0
0 0 0
0 0 0
0 0 0
0 0 0
-0.00142463 -0.00314479 0.00109027
-0.00342333 -0.00416252 0.00184835
0 0 0
0 0 0
-0.00179244 -0.00305645 0.00221258
-0.00384754 -0.00396843 0.00263681
-0.00327577 -0.00263815 0.00342403
-0.00495436 -0.00397083 0.00400538
0 0 0
0 0 0
0 0 0
0 0 0
0 0 0
0 0 0
-0.00215324 -0.00131088 -0.00314141
-0.00423298 -0.00326548 -0.00412632
-0.00106382 -0.00155686 -0.00225354
-0.00286767 -0.00330435 -0.00260118
-0.00146867 -0.000957402 -0.00309974
-0.00325717 -0.00176468 -0.00435595
-0.00136302 -0.000449153 -0.003235
-0.0032124 -0.00054329 -0.0042941
0 0 0
0 0 0
0 0 0
0 0 0
-0.000803434 -0.00165427 -0.00106126
-0.00254767 -0.00338848 -0.00181659
-0.000864469 -0.00110567 -0.00165991
-0.00262327 -0.00183509 -0.00345433
-0.000715681 -0.000685696 -0.00169502
-0.00233089 -0.000586948 -0.00346798
-0.00229283 -0.00259727 -0.00189764
-0.00618993 -0.00458896 -0.00273427
-0.00209799 -0.00265771 -0.00122764
-0.00597304 -0.00469441 -0.000908761
-0.00222428 -0.00189852 -0.0026747
-0.00620704 -0.00268917 -0.00461881
-0.00207098 -0.00128187 -0.0026791
-0.00598939 -0.000878533 -0.004692
0 0 0
0 0 0
0 0 0
0 0 0
0 0 0
0 0 0
0 0 0
0 0 0
-0.000712359 -0.00168458 -0.000307263
-0.00239863 -0.00345281 -0.0012061
-0.000711866 -0.00171341 2.4628e-05
-0.00240287 -0.00346014 1.57053e-05
-0.000690868 -0.00168179 0.000369892
-0.00237253 -0.00346399 0.00125623
-0.001984 -0.00267503 9.33123e-06
-0.00586594 -0.0047294 2.5354e-05
-0.00199872 -0.00269943 0.000629906
-0.00602026 -0.00464001 0.00179911
-0.00179719 -0.00129901 -0.00128399
-0.0057117 -0.0009073 -0.00377443
0 0 0
0 0 0
0 0 0
0 0 0
-0.000773717 -0.00162123 0.00112557
-0.00250065 -0.00336252 0.00185569
-0.000850909 -0.00109135 0.001674
-0.00262072 -0.00182715 0.00347608
-0.000728786 -0.000683812 0.00169838
-0.00234789 -0.000579356 0.00346612
-0.00215225 -0.00260787 0.00195395
-0.00615202 -0.00455399 0.0026908
-0.00220951 -0.00187713 0.00269704
-0.00622572 -0.00270765 0.00463408
-0.00208506 -0.00125267 0.0026908
-0.00598167 -0.000910996 0.00470631
0 0 0
0 0 0
0 0 0
0 0 0
-0.00105656 -0.00155728 0.00227221
-0.00284224 -0.00329181 0.00261053
-0.00215319 -0.00132022 0.00315705
-0.00422345 -0.00327523 0.00412796
-0.00147443 -0.000960862 0.0031079
-0.00326511 -0.00176496 0.00437186
-0.00136976 -0.000444416 0.00324001
-0.00321936 -0.00052596 0.00429268
0 0 0
0 0 0
0 0 0
0 0 0
-0.00150742 2.1557e-05 -0.003322
-0.00341307 -4.05952e-05 -0.00412477
0 0 0
0 0 0
0 0 0
0 0 0
0 0 0
0 0 0
0 0 0
0 0 0
-0.000689697 -1.15225e-06 -0.00171472
-0.00227861 -6.30325e-06 -0.00353117
-0.000714244 0.000367238 -0.00169542
-0.00242345 0.00121886 -0.00344987
-0.00194639 -1.29807e-06 -0.00274893
-0.00589668 -3.583e-06 -0.00471431
-0.00199565 0.000603588 -0.00274652
-0.00604596 0.00177394 -0.00463243
0 0 0
0 0 0
0 0 0
0 0 0
-0.00175289 -0.00127574 -5.63362e-06
-0.00571979 -0.00376555 -1.41876e-05
-0.00178154 -0.00121961 0.000610676
-0.00577405 -0.00375011 0.00180206
-0.00177494 1.90339e-06 -0.00126283
-0.0057092 8.32202e-07 -0.0037535
-0.00165395 -9.29126e-06 0.00126871
-0.0057047 -1.33268e-05 0.00379129
-0.00178591 0.000610329 -0.00123314
-0.00577805 0.00177603 -0.00373751
-0.00173218 0.000597728 0.0012622
-0.00577963 0.00186984 0.00377027
-0.00169549 0.0012696 -4.92627e-07
-0.0057137 0.00378363 -2.88481e-05
-0.00175156 0.00123718 0.00059144
-0.00578943 0.0037599 0.00181912
-0.00524226 -5.22778e-06 -1.20986e-05
-0.0147235 1.33682e-05 4.62179e-06
0 0 0
0 0 0
0 0 0
0 0 0
0 0 0
0 0 0
0 0 0
0 0 0
-0.000682038 -6.71907e-06 0.00166
-0.0022671 -1.57467e-06 0.00347732
-0.000703813 0.000330129 0.00164824
-0.00241752 0.00118649 0.00343936
-0.00188879 -0.00128713 0.00197352
-0.00590031 -0.00370249 0.00273962
-0.00194203 -2.44693e-05 0.00268384
-0.00585192 2.38252e-06 0.00475072
-0.00198411 0.000590963 0.00268486
-0.00603035 0.00182507 0.00466936
-0.00190422 0.00124264 0.00194775
-0.00589751 0.00370638 0.00274284
0 0 0
0 0 0
-0.00149972 3.03703e-05 0.00330636
-0.00339811 -2.95491e-05 0.00409783
0 0 0
0 0 0
0 0 0
0 0 0
0 0 0
0 0 0
-0.00145376 0.000688229 -0.00320711
-0.003308 0.00054879 -0.0042297
-0.00131413 0.000949494 -0.00306315
-0.00314259 0.0017725 -0.00431537
-0.00210026 0.00125705 -0.00310452
-0.0042227 0.0032674 -0.0041018
-0.00105206 0.0015114 -0.00225036
-0.00285431 0.00334624 -0.00258447
0 0 0
0 0 0
0 0 0
0 0 0
-0.000786754 0.00112084 -0.00165468
-0.00250618 0.0018549 -0.00340277
-0.000792473 0.00165858 -0.00105457
-0.0025378 0.00341039 -0.0018092
-0.00217365 0.00192822 -0.00262927
-0.00619472 0.00265029 -0.00455588
-0.00222068 0.00264297 -0.00189145
-0.00618191 0.00459168 -0.00272805
-0.00206569 0.00267628 -0.00123231
-0.00597324 0.00468197 -0.000918377
0 0 0
0 0 0
0 0 0
0 0 0
0 0 0
0 0 0
0 0 0
0 0 0
-0.000703307 0.0016802 -0.000310814
-0.00238787 0.00346894 -0.00120821
-0.000701242 0.00171167 1.09788e-05
-0.00239661 0.00346697 6.89094e-06
-0.000693846 0.00168747 0.00034689
-0.00238067 0.00348355 0.0012431
-0.00189386 0.00196093 -0.00128454
-0.00591271 0.00270264 -0.00369407
-0.00195529 0.00268549 3.29111e-06
-0.00586565 0.00473581 1.66393e-05
-0.00200544 0.00270419 0.000615158
-0.00603588 0.00465159 0.00181069
0 0 0
0 0 0
0 0 0
0 0 0
-0.000793034 0.00107618 0.00165522
-0.00252152 0.00183006 0.00342527
-0.000776704 0.00161962 0.00110453
-0.00251183 0.00337947 0.00184208
-0.00218093 0.00187986 0.00265716
-0.00621107 0.00271917 0.00460328
-0.00212536 0.00263585 0.00191844
-0.00615465 0.00456847 0.00269117
0 0 0
0 0 0
0 0 0
0 0 0
-0.00145406 0.000672412 0.00320218
-0.00330278 0.000541627 0.00420043
-0.00132498 0.000936077 0.00307278
-0.0031594 0.00176275 0.00433118
-0.00104809 0.00149568 0.00225616
-0.00283992 0.00331614 0.00258823
-0.00210236 0.00125111 0.00310927
-0.0042241 0.00327143 0.00410015
0 0 0
0 0 0
-0.00328218 0.0025952 -0.00343234
-0.00497175 0.00396175 -0.00400338
-0.00179508 0.00304141 -0.0022201
-0.00386701 0.00401486 -0.00263373
0 0 0
0 0 0
-0.00143982 0.00318144 -0.00107941
-0.00344459 0.00420367 -0.00181683
0 0 0
0 0 0
-0.00142035 0.00328137 -0.000403353
-0.0033269 0.00416926 -0.00118326
-0.00130804 0.00313206 1.07206e-05
-0.00306371 0.00429991 8.63267e-06
-0.00142361 0.00327094 0.000427256
-0.00333729 0.00416646 0.00120067
0 0 0
0 0 0
-0.00143526 0.00315356 0.00108692
-0.00344408 0.0041808 0.001831
-0.00179354 0.00303005 0.00221481
-0.00386549 0.00399254 0.00263015
-0.00328434 0.00259139 0.00342488
-0.0049779 0.00396465 0.00399166
-0.00567698 -0.00461619 -0.00402947
-0.00537516 -0.00475879 -0.00317795
-0.00565193 -0.00393878 -0.00471139
-0.00529712 -0.00318956 -0.00477898
-0.0073699 -0.00499761 -0.00501289
-0.00865508 -0.0052056 -0.00518224
-0.00705583 -0.00432005 -0.00507558
-0.00837001 -0.00375192 -0.00536513
-0.00477728 -0.00494011 -0.00153445
-0.00475105 -0.00494748 -0.000771302
-0.00469864 -0.00400893 -0.00321969
-0.00472813 -0.00316671 -0.00409478
-0.00686568 -0.00516224 -0.00362988
-0.00853406 -0.00522367 -0.00455559
-0.00668354 -0.00532649 -0.00275329
-0.00834909 -0.00552265 -0.00291239
-0.00653782 -0.00542188 -0.00186763
-0.00824533 -0.00574627 -0.00101678
-0.00646902 -0.00446366 -0.00361201
-0.00823262 -0.00374111 -0.00468818
-0.00474317 -0.00495453 0.00078484
-0.00476245 -0.00494645 0.00153686
-0.00640191 -0.00545149 9.66845e-06
-0.00817971 -0.00577425 7.39829e-06
-0.005367 -0.00475852 0.00316948
-0.00566785 -0.00462107 0.00401598
-0.00466702 -0.0040082 0.00321249
-0.00471411 -0.00317274 0.00411276
-0.00649505 -0.0054119 0.00181516
-0.00818906 -0.00573279 0.000998014
-0.00671054 -0.00532507 0.00271621
-0.0084248 -0.00551839 0.00284903
-0.00685575 -0.0051647 0.00359925
-0.00852364 -0.00522556 0.00450813
-0.00644794 -0.00446519 0.00358097
-0.00823725 -0.00374572 0.00467853
-0.00563678 -0.00395764 0.00470829
-0.00529183 -0.00320583 0.00479576
-0.0073533 -0.00502472 0.00497926
-0.0086442 -0.00522834 0.00513656
-0.00704045 -0.00434746 0.00506296
-0.00836443 -0.0037739 0.00536348
-0.00482714 -0.0015605 -0.00496468
-0.0047658 -0.000763975 -0.00498764
-0.00661469 -0.00273133 -0.00535856
-0.00827856 -0.00290603 -0.0055039
-0.00484085 -0.00155502 0.00497887
-0.00477114 -0.000751915 0.00498927
-0.00662881 -0.00274885 0.00537788
-0.00829263 -0.00292723 0.0055211
-0.00477184 0.000760062 -0.00497655
-0.00484432 0.00154847 -0.0049451
-0.00645468 -0.000882534 -0.00547404
-0.00822303 -0.00193246 -0.00561849
-0.00645361 1.1884e-05 -0.00554171
-0.00825285 3.10326e-05 -0.00582194
-0.0064349 0.000917949 -0.00544787
-0.0082383 0.00195565 -0.00560293
-0.00476609 0.000764013 0.0049523
-0.00484153 0.00154589 0.00494063
-0.00645713 -0.000892122 0.00548192
-0.00824253 -0.00196137 0.00563731
-0.00642847 1.50038e-05 0.00552443
-0.00820972 1.11622e-05 0.00581158
-0.00642712 0.000934326 0.00546227
-0.00823144 0.00197954 0.00563851
-0.00528301 0.0032054 -0.00475412
-0.00564316 0.00394872 -0.00468427
-0.0046913 0.00319104 -0.00405863
-0.0046718 0.00405641 -0.00320164
-0.00669889 0.00267638 -0.00534241
-0.00842506 0.00281666 -0.00553135
-0.00469307 0.00320224 0.00407388
-0.00466041 0.00404414 0.0031881
-0.00529306 0.00323126 0.0047673
-0.00564991 0.00398021 0.0046804
-0.00670785 0.00272972 0.00537687
-0.00843277 0.00287665 0.00553593
-0.00565307 0.00462809 -0.0040305
-0.00535771 0.00479388 -0.00319014
-0.00704089 0.00430344 -0.00506242
-0.00841444 0.00369982 -0.00535187
-0.00733653 0.00498546 -0.00501097
-0.00863756 0.00516901 -0.00518268
-0.00476985 0.00495631 -0.00154047
-0.00474023 0.0049587 -0.000776648
-0.00644473 0.0044734 -0.00359691
-0.00825647 0.00369454 -0.00467594
-0.00682829 0.00516895 -0.00363158
-0.00850205 0.0051926 -0.00454821
-0.00667245 0.00535445 -0.00276792
-0.00835018 0.00551827 -0.00293226
-0.00652264 0.00542177 -0.00186845
-0.00822182 0.00572102 -0.00101609
-0.00474451 0.00496912 0.00077736
-0.00477082 0.00496964 0.00153156
-0.00639592 0.00545213 3.77721e-06
-0.00816203 0.00577222 4.37725e-06
-0.00536251 0.00478706 0.00316195
-0.00566594 0.00463797 0.00400196
-0.0064409 0.00448899 0.00357149
-0.00826858 0.00374308 0.00467682
-0.00649721 0.00542621 0.00181773
-0.00818154 0.00571749 0.000998231
-0.00668294 0.00534888 0.00271279
-0.00837474 0.00553591 0.00286145
-0.00683594 0.00518163 0.00358823
-0.0085027 0.00522735 0.00451973
-0.007045 0.00436309 0.00505539
-0.00840898 0.0037591 0.00536495
-0.00735308 0.0050415 0.00497389
-0.00863933 0.00521976 0.00515433
-0.00998604 -0.00526536 -0.00457402
-0.00998669 -0.00534318 -0.00378964
-0.00997149 -0.00454798 -0.00524505
-0.00995891 -0.00379344 -0.00530526
-0.0113132 -0.00520356 -0.00513494
-0.0126335 -0.00499224 -0.00498098
-0.0114556 -0.00520373 -0.00450035
-0.0131309 -0.005135 -0.00359399
-0.0100115 -0.00560142 -0.00199128
-0.0100422 -0.00575404 -0.00100364
-0.0100169 -0.00463982 -0.0037882
-0.00999776 -0.0037543 -0.00462742
-0.0100339 -0.00384283 -0.00385138
-0.00999847 -0.00193348 -0.00487689
-0.0116128 -0.00542891 -0.00287198
-0.0132587 -0.00528169 -0.00271623
-0.0119009 -0.0038003 -0.00381007
-0.0138249 -0.0017926 -0.00465688
-0.0100163 -0.00576329 0.000977918
-0.01001 -0.00564474 0.00196121
-0.0100251 -0.00408199 -0.00202387
-0.00998619 -0.00201799 -0.00406514
-0.00998215 -0.00404419 0.0020068
-0.0100047 -0.0020203 0.0040598
-0.0117456 -0.00561481 -0.00100303
-0.0133923 -0.00534886 -0.00185464
-0.011753 -0.00575813 1.00292e-05
-0.0135407 -0.00552907 8.42436e-06
-0.0117967 -0.00570447 0.000983504
-0.0134896 -0.00544197 0.00184211
-0.0121149 -0.00401204 -0.00195417
-0.0141335 -0.00183089 -0.00379707
-0.0120767 -0.00397317 0.00193555
-0.0141695 -0.00182538 0.00377283
-0.0142586 -0.00375085 -1.2736e-06
-0.018312 -0.00126539 2.08085e-05
-0.0142414 -0.00376938 0.000911567
-0.0182586 -0.00130341 0.00127373
-0.0100041 -0.00533198 0.00374673
-0.00998224 -0.0052539 0.00453203
-0.0100207 -0.00463831 0.00376016
-0.00999811 -0.00374055 0.00462292
-0.0100227 -0.0038006 0.00389473
-0.0100254 -0.00193287 0.00491885
-0.0116802 -0.00541277 0.00286674
-0.0133394 -0.0052557 0.00274079
-0.0118967 -0.00378145 0.00380171
-0.0138434 -0.00177559 0.00464699
-0.00997759 -0.00455717 0.00521729
-0.00996129 -0.00379908 0.00529231
-0.0114597 -0.00519229 0.00448591
-0.0131549 -0.00512819 0.00359937
-0.0113255 -0.00519511 0.00512302
-0.0126457 -0.00498086 0.0049785
-0.009988 -0.00201529 -0.0055206
-0.00999449 -0.00103624 -0.00570043
-0.0115919 -0.00374633 -0.00532218
-0.0129407 -0.00430644 -0.00504136
-0.0117501 -0.00372271 -0.00461586
-0.0134994 -0.0044523 -0.00356793
-0.0116575 -0.00288931 -0.00542116
-0.0132745 -0.00272655 -0.00526225
-0.0116938 -0.001971 -0.00551944
-0.0135264 -0.000956328 -0.0054814
-0.00999507 -0.00201794 0.00555611
-0.00999356 -0.00103993 0.00572844
-0.0117446 -0.00371377 0.00460719
-0.0135039 -0.00443895 0.00356852
-0.0115965 -0.00374257 0.00531604
-0.0129442 -0.00429923 0.00503693
-0.011665 -0.0028885 0.00542874
-0.0132848 -0.0027269 0.00526095
-0.0117054 -0.00196859 0.00552416
-0.0135669 -0.000941589 0.0054641
-0.0100078 0.00097711 -0.00582792
-0.010035 0.00196398 -0.00563683
-0.00994565 0.00200001 -0.00407185
-0.00998648 0.00406432 -0.00203402
-0.0117908 1.93642e-05 -0.00582178
-0.0136104 1.32452e-05 -0.0055754
-0.0120595 0.0019409 -0.00400385
-0.0141683 0.00379788 -0.00184577
-0.0142682 -3.43669e-06 -0.00377518
-0.0183052 1.02938e-05 -0.00126398
-0.0142418 0.00091703 -0.0037796
-0.0182603 0.00128418 -0.00129399
-0.00999226 0.000955424 0.00577101
-0.0100409 0.00194188 0.00557434
-0.0100164 0.0020231 0.00405009
-0.00998772 0.00405597 0.00199494
-0.00997646 0.00193319 0.00490689
-0.00995822 0.00384233 0.00383845
-0.0117827 8.76828e-06 0.00579201
-0.0136214 2.0649e-05 0.0055514
-0.0121244 0.00195369 0.00397588
-0.0141514 0.00377004 0.00180923
-0.0119495 0.00187189 0.00487132
-0.0138046 0.00364213 0.00361924
-0.0143029 -1.99496e-06 0.00374001
-0.0182627 -1.12423e-05 0.00125523
-0.0141137 1.31652e-05 0.00470247
-0.0180654 -2.25288e-05 0.00273499
-0.0143144 0.000901845 0.00377806
-0.0182271 0.00124505 0.00127009
-0.0140425 0.000916336 0.00466737
-0.0179819 0.00120834 0.00272294
-0.0100109 0.00376471 -0.00529474
-0.00997687 0.00450874 -0.00523593
-0.010006 0.00377054 -0.00462133
-0.00997717 0.00462513 -0.00375916
-0.00998539 0.00390318 -0.00380241
-0.00999638 0.0049348 -0.00194235
-0.0117132 0.001973 -0.00560964
-0.0135204 0.000934828 -0.00548025
-0.0116735 0.00286516 -0.00550083
-0.0133194 0.00270887 -0.00533968
-0.0115948 0.00369146 -0.00530908
-0.0129281 0.00431308 -0.00504899
-0.0117406 0.0037047 -0.00464563
-0.0134609 0.00448107 -0.0035797
-0.0118669 0.00380322 -0.00382044
-0.0138386 0.0046688 -0.00181004
-0.0140024 0.00274947 -0.00370654
-0.0181267 0.00197858 -0.00125363
-0.0100121 0.00375088 0.00461407
-0.0099865 0.00463237 0.00377713
-0.0100123 0.00373684 0.00524923
-0.00997663 0.00451118 0.00521593
-0.0117562 0.00197846 0.0055779
-0.013562 0.000929842 0.00546862
-0.0117248 0.0029142 0.00545266
-0.0133727 0.00275788 0.00531004
-0.0117197 0.00370178 0.00464402
-0.0134756 0.00449104 0.00357815
-0.011616 0.00372248 0.00531724
-0.012923 0.00433307 0.00504498
-0.0137454 0.00272537 0.00455399
-0.0178299 0.00185133 0.00268142
-0.00996881 0.00521597 -0.00457583
-0.00996884 0.00530289 -0.0037986
-0.0113233 0.00516812 -0.00516884
-0.0126349 0.0049977 -0.00499576
-0.0114546 0.00518108 -0.00452821
-0.0131338 0.00514296 -0.00359354
-0.0100251 0.00557033 -0.00201609
-0.0100096 0.00574232 -0.00101623
-0.0116717 0.0054378 -0.00290845
-0.0133496 0.00527607 -0.00275985
-0.0100127 0.00572991 0.000977571
-0.0100216 0.00560538 0.0019698
-0.0117996 0.00565134 -0.00101181
-0.0135248 0.00538613 -0.0018418
-0.0117826 0.00576889 7.18638e-06
-0.0135892 0.00550561 1.47073e-05
-0.0117864 0.00562064 0.00100276
-0.0135123 0.0053621 0.00183949
-0.0142757 0.00374597 -8.83637e-06
-0.0182448 0.00127721 -4.56939e-06
-0.0140965 0.00469302 -3.16298e-06
-0.0180252 0.00275181 -5.35273e-06
-0.009988 0.00532713 0.00378395
-0.00997703 0.00524517 0.00456997
-0.0117086 0.00542023 0.00289121
-0.0133591 0.00527892 0.00273869
-0.0114615 0.00519865 0.00451778
-0.0131425 0.00516936 0.00360325
-0.0113286 0.00518582 0.00515538
-0.0126239 0.00501168 0.00497936
-0.0143223 -0.00464675 -0.00402443
-0.0146014 -0.0048311 -0.00317215
-0.0143288 -0.00396776 -0.00469588
-0.014669 -0.00322403 -0.004797
-0.0149977 -0.00397797 -0.00400436
-0.0166955 -0.00260582 -0.00342964
-0.0157405 -0.00328463 -0.00411537
-0.0178712 -0.00124629 -0.00310786
-0.0151639 -0.00511386 -0.00154775
-0.0152644 -0.00512719 -0.000764527
-0.0152521 -0.00409574 -0.00322754
-0.0152413 -0.00321538 -0.00412447
-0.0157406 -0.00326601 -0.00330212
-0.0157233 -0.00150601 -0.0042704
-0.0160934 -0.00399528 -0.00263072
-0.0181917 -0.00303941 -0.00221445
-0.0164915 -0.00420135 -0.00181688
-0.0185476 -0.00312722 -0.00107718
-0.0165753 -0.00423042 -0.0011967
-0.0185551 -0.00326195 -0.000413992
-0.0170993 -0.00332073 -0.00257993
-0.018935 -0.00148185 -0.00224
-0.0174509 -0.00339602 -0.00180755
-0.0192245 -0.00155452 -0.0010743
-0.0176264 -0.00352758 -0.00122613
-0.0193184 -0.00165316 -0.000340104
-0.0178148 -0.00261689 -0.00189977
-0.0194253 -0.000744276 -0.00111201
-0.017935 -0.0026782 -0.00120487
-0.0195073 -0.000700639 -0.000336186
-0.0153 -0.00503178 0.000798282
-0.0152442 -0.00501354 0.00159667
-0.0161783 -0.00338007 -0.00159199
-0.0161357 -0.00159108 -0.00337662
-0.0169014 -0.00440061 -1.12996e-05
-0.018684 -0.00313999 -1.34722e-05
-0.017652 -0.00360283 -7.27299e-06
-0.0193026 -0.0017295 -4.70518e-06
-0.0179757 -0.00278431 5.94043e-07