# vtk DataFile Version 3.0
vtk output at time 0.3
ASCII
DATASET UNSTRUCTURED_GRID
POINTS 1524 float
0 0 0 0 0 0.05 0 0 0.1 
0 0 0.15 0 0 0.2 0 0.05 0 
0 0.05 0.05 0 0.05 0.1 0 0.05 0.15 
0 0.05 0.2 0 0.1 0 0 0.1 0.05 
0 0.1 0.1 0 0.1 0.15 0 0.1 0.2 
0 0.15 0 0 0.15 0.05 0 0.15 0.1 
0 0.15 0.15 0 0.15 0.2 0 0.2 0 
0 0.2 0.05 0 0.2 0.1 0 0.2 0.15 
0 0.2 0.2 0.045537 -0.0034857 -0.00366549 0.046318 -0.00377547 0.0481762 
0.0464966 -0.00381018 0.100008 0.0463208 -0.00378373 0.151824 0.0455498 -0.00349962 0.203652 
0.0463042 0.0481886 -0.00379706 0.0462964 0.0481847 0.203813 0.0465104 0.100011 -0.00392679 
0.0465253 0.100018 0.203903 0.0463056 0.151802 -0.00377096 0.0462938 0.151814 0.203795 
0.045554 0.203472 -0.00365914 0.0463099 0.203793 0.0481652 0.0465 0.203817 0.100003 
0.0463154 0.203796 0.151822 0.0455495 0.203501 0.203639 0.0925232 -0.00401903 -0.00403058 
0.0925145 -0.00419522 0.0477536 0.0924881 -0.00454058 0.0999968 0.0924476 -0.00423593 0.152212 
0.0925216 -0.00403243 0.203998 0.0925463 0.0477469 -0.00413973 0.092544 0.0477453 0.204154 
0.0924812 0.100017 -0.00459617 0.0925268 0.0999805 0.204561 0.0924053 0.152227 -0.00418508 
0.0923912 0.15219 0.204141 0.0925119 0.203988 -0.00403026 0.0925006 0.204169 0.0477362 
0.0925337 0.20456 0.0999993 0.0924757 0.204233 0.152236 0.0925225 0.204004 0.204034 
0.13945 -0.00348717 -0.00365358 0.138739 -0.00387218 0.0481924 0.138484 -0.00395417 0.0999999 
0.138679 -0.00383298 0.151834 0.139444 -0.00348643 0.20365 0.138792 0.048192 -0.00386954 
0.138785 0.0481963 0.203847 0.138425 0.100024 -0.00397665 0.13842 0.10004 0.203948 
0.138708 0.151819 -0.00379218 0.138699 0.151822 0.203777 0.139466 0.20349 -0.00365495 
0.138769 0.203859 0.0481547 0.138468 0.20389 0.100021 0.138698 0.203914 0.151784 
0.139469 0.203506 0.203637 0.185 0 0 0.185 0 0.05 
0.185 0 0.1 0.185 0 0.15 0.185 0 0.2 
0.185 0.05 0 0.185 0.05 0.05 0.185 0.05 0.1 
0.185 0.05 0.15 0.185 0.05 0.2 0.185 0.1 0 
0.185 0.1 0.05 0.185 0.1 0.1 0.185 0.1 0.15 
0.185 0.1 0.2 0.185 0.15 0 0.185 0.15 0.05 
0.185 0.15 0.1 0.185 0.15 0.15 0.185 0.15 0.2 
0.185 0.2 0 0.185 0.2 0.05 0.185 0.2 0.1 
0.185 0.2 0.15 0.185 0.2 0.2 0 0 0.0166667 
0 0 0.0333333 0 0.0166667 0 0 0.0333333 0 
0.0143422 -0.00201506 -0.00263063 0.0297081 -0.00304048 -0.00308122 0.0154018 -0.00232778 0.0149913 
0.0305078 -0.0030571 0.0313315 0 0 0.0666667 0 0 0.0833333 
0 0.0166667 0.0333333 0 0.0333333 0.0166667 0 0.0166667 0.05 
0 0.0333333 0.05 0 0.0166667 0.0666667 0 0.0333333 0.0833333 
0.0156525 -0.00242944 0.0491809 0.03082 -0.00321834 0.0486106 0 0 0.116667 
0 0 0.133333 0 0.0166667 0.1 0 0.0333333 0.1 
0.0156544 -0.00251743 0.0830274 0.0308835 -0.0032036 0.0657642 0.01572 -0.00240515 0.100016 
0.0310703 -0.00330799 0.100013 0.015655 -0.002504 0.117002 0.0308813 -0.00319661 0.134254 
0 0 0.166667 0 0 0.183333 0 0.0166667 0.133333 
0 0.0333333 0.116667 0 0.0166667 0.15 0 0.0333333 0.15 
0 0.0166667 0.166667 0 0.0333333 0.183333 0.0156562 -0.00240323 0.150823 
0.03082 -0.003202 0.151404 0 0.0166667 0.2 0 0.0333333 0.2 
0.0154052 -0.00232243 0.185004 0.0305131 -0.00304737 0.168672 0.0143445 -0.00201642 0.202623 
0.0297151 -0.00304435 0.203074 0 0.05 0.0166667 0 0.05 0.0333333 
0 0.0666667 0 0 0.0833333 0 0 0.0666667 0.0166667 
0 0.0833333 0.0333333 0.0151247 0.0323457 -0.00240492 0.030242 0.0141734 -0.00316547 
0.0159153 0.0321577 0.0149579 0.0312388 0.0141415 0.0313621 0.0156195 0.0492787 -0.00236843 
0.0309479 0.04866 -0.00334594 0.0156959 0.0663274 -0.0024761 0.0309638 0.0829238 -0.00330898 
0 0.05 0.0666667 0 0.05 0.0833333 0 0.0666667 0.05 
0 0.0833333 0.05 0.0160846 0.0320759 0.0491982 0.0314627 0.0140729 0.0486245 
0.0160437 0.0491622 0.0320723 0.0314123 0.0486064 0.0140211 0.0161457 0.0661454 0.032043 
0.0316118 0.0828879 0.0140062 0.0316398 0.031351 0.0485582 0.0620524 0.0131407 0.0479115 
0.0317762 0.0313026 0.0657345 0.0622039 0.0130527 0.0826422 0.0316932 0.0485563 0.0312927 
0.0620358 0.0479463 0.0131183 0.0317947 0.065692 0.0312881 0.0621891 0.0826655 0.0130544 
0 0.05 0.116667 0 0.05 0.133333 0 0.0666667 0.0833333 
0 0.0833333 0.0666667 0 0.0666667 0.1 0 0.0833333 0.1 
0 0.0666667 0.116667 0 0.0833333 0.133333 0.0161461 0.0320473 0.0830999 
0.0315673 0.0140195 0.065752 0.0161442 0.0320243 0.100018 0.0315584 0.0140062 0.100012 
0.0161617 0.0320477 0.116947 0.031585 0.0140091 0.134287 0.0318531 0.0312843 0.100008 
0.0622811 0.0130238 0.10002 0.0318439 0.0312674 0.117145 0.0621708 0.0130974 0.134707 
0.0319865 0.0656766 0.0656886 0.06239 0.0826407 0.0304317 0 0.05 0.166667 
0 0.05 0.183333 0 0.0666667 0.15 0 0.0833333 0.15 
0.0161063 0.0321007 0.150851 0.0314958 0.0140929 0.151405 0.016053 0.0491736 0.167938 
0.0314138 0.0486127 0.185996 0.0161365 0.0661479 0.167959 0.0316 0.082894 0.185992 
0.0317402 0.0313446 0.151485 0.0620785 0.0131674 0.152055 0.0317037 0.0485736 0.168725 
0.0620221 0.0479316 0.186894 0.0317877 0.0657154 0.168722 0.0621972 0.0826399 0.186957 
0 0.0666667 0.183333 0 0.0833333 0.166667 0 0.0666667 0.2 
0 0.0833333 0.2 0.0159209 0.0321572 0.185056 0.0312565 0.014151 0.168645 
0.015125 0.0323385 0.202417 0.0302487 0.0141654 0.203166 0.0156151 0.0492762 0.202375 
0.0309417 0.0486598 0.203358 0.0156913 0.0663313 0.202479 0.0309587 0.0829372 0.203308 
0 0.1 0.0166667 0 0.1 0.0333333 0 0.116667 0 
0 0.133333 0 0.0155889 0.100014 -0.00254642 0.0308038 0.0999691 -0.00318459 
0 0.1 0.0666667 0 0.1 0.0833333 0 0.116667 0.0333333 
0 0.133333 0.0166667 0 0.116667 0.05 0 0.133333 0.05 
0 0.116667 0.0666667 0 0.133333 0.0833333 0.0161631 0.0999977 0.0320219 
0.0316513 0.0999952 0.0139525 0.0161445 0.116944 0.0320397 0.0315482 0.134258 0.0140224 
0.0318802 0.0999985 0.0312296 0.0622551 0.0999981 0.0130357 0.0318466 0.117124 0.0312322 
0.0621512 0.134688 0.0131025 0 0.1 0.116667 0 0.1 0.133333 
0 0.116667 0.1 0 0.133333 0.1 0.0320134 0.0656911 0.0999966 
0.0623822 0.0304369 0.0999893 0.0319961 0.0657344 0.117132 0.0623472 0.0304524 0.13471 
0.0319965 0.100002 0.0657011 0.0623878 0.100001 0.0304461 0.0320859 0.0999935 0.134303 
0.0623931 0.0999897 0.169583 0.0319921 0.117131 0.0657251 0.0623432 0.134691 0.0304618 
0.0320326 0.117123 0.134298 0.0623436 0.134762 0.169564 0.0320552 0.134305 0.100001 
0.0623868 0.169578 0.0999776 0.0320183 0.13428 0.117118 0.0623348 0.169554 0.134724 
0.0627162 0.0999962 0.0999909 0.12231 0.10001 0.100004 0 0.1 0.166667 
0 0.1 0.183333 0 0.116667 0.133333 0 0.133333 0.116667 
0 0.116667 0.15 0 0.133333 0.15 0 0.116667 0.166667 
0 0.133333 0.183333 0.0161681 0.0999937 0.167936 0.0316597 0.0999986 0.186006 
0.0161514 0.116916 0.167925 0.0315522 0.134234 0.185971 0.031925 0.0656864 0.151504 
0.0622595 0.030493 0.152096 0.0318837 0.0999814 0.168721 0.0622915 0.100002 0.186993 
0.0318551 0.117115 0.168722 0.062163 0.134727 0.186926 0.0319127 0.134279 0.151486 
0.0622604 0.16951 0.1521 0 0.116667 0.2 0 0.133333 0.2 
0.0155941 0.100021 0.202534 0.0308145 0.0999775 0.203164 0 0.15 0.0166667 
0 0.15 0.0333333 0 0.166667 0 0 0.183333 0 
0 0.166667 0.0166667 0 0.183333 0.0333333 0.0156296 0.133851 -0.0024537 
0.0308893 0.117082 -0.00325982 0.01573 0.150715 -0.0023394 0.0310296 0.151345 -0.0033135 
0.0151602 0.167615 -0.00237529 0.0302477 0.185827 -0.00314744 0.0159232 0.167809 0.0149612 
0.0312479 0.185891 0.0313739 0 0.15 0.0666667 0 0.15 0.0833333 
0 0.166667 0.05 0 0.183333 0.05 0.0160975 0.150848 0.0320762 
0.031494 0.151408 0.0140632 0.0160927 0.167929 0.0492031 0.0314691 0.185945 0.0486294 
0.0317239 0.151466 0.0313295 0.0620455 0.152025 0.0131659 0.031692 0.168684 0.0485632 
0.0620561 0.186862 0.0479155 0.0317994 0.168711 0.0657313 0.0622036 0.186938 0.0826344 
0 0.15 0.116667 0 0.15 0.133333 0 0.166667 0.0833333 
0 0.183333 0.0666667 0 0.166667 0.1 0 0.183333 0.1 
0 0.166667 0.116667 0 0.183333 0.133333 0.0161527 0.16795 0.0830975 
0.0315747 0.185993 0.0657505 0.0161519 0.167974 0.100008 0.0315629 0.185999 0.100005 
0.0161595 0.167957 0.11693 0.0315793 0.186006 0.134277 0.0319201 0.151496 0.0656895 
0.062249 0.152068 0.0304991 0.0318743 0.168723 0.100003 0.062282 0.186982 0.100013 
0.0318389 0.168736 0.117134 0.0621588 0.186911 0.134716 0 0.15 0.166667 
0 0.15 0.183333 0 0.166667 0.15 0 0.183333 0.15 
0.0160926 0.150814 0.167924 0.0314828 0.15139 0.185955 0.0161041 0.167899 0.150835 
0.0314878 0.18592 0.151396 0.0317215 0.151429 0.168694 0.0620342 0.152077 0.186872 
0.0317597 0.168676 0.151458 0.0620763 0.186844 0.152056 0 0.166667 0.183333 
0 0.183333 0.166667 0 0.166667 0.2 0 0.183333 0.2 
0.0156288 0.13384 0.20245 0.0308925 0.117076 0.203238 0.0157218 0.150705 0.202347 
0.0310167 0.151338 0.203327 0.015926 0.167798 0.185043 0.0312581 0.185868 0.168629 
0.0151583 0.167611 0.202379 0.0302461 0.185831 0.203146 0 0.2 0.0166667 
0 0.2 0.0333333 0.0143393 0.201985 -0.00262908 0.0297022 0.203036 -0.00307499 
0.0154027 0.202313 0.01499 0.0305 0.203084 0.0313281 0 0.2 0.0666667 
0 0.2 0.0833333 0.0156468 0.202431 0.0491859 0.0308058 0.203234 0.0486192 
0 0.2 0.116667 0 0.2 0.133333 0.015655 0.202517 0.0830249 
0.0308824 0.203212 0.0657687 0.0157192 0.202406 0.100008 0.0310712 0.203314 0.100007 
0.0156518 0.20251 0.116993 0.0308738 0.203211 0.134245 0 0.2 0.166667 
0 0.2 0.183333 0.0156491 0.20241 0.15082 0.0308058 0.203216 0.151391 
0.0154033 0.202305 0.185005 0.0305007 0.203067 0.168668 0.0143373 0.201983 0.202623 
0.0296974 0.203039 0.203065 0.0458007 -0.00354533 0.0135813 0.0460175 -0.00365752 0.0309071 
0.0458206 0.0136479 -0.00361598 0.0460774 0.0308939 -0.00367279 0.0611789 -0.00384163 -0.00385119 
0.0768607 -0.00400232 -0.00398402 0.0614136 0.013352 -0.00390122 0.077071 0.0304562 -0.00412922 
0.0464435 -0.00380188 0.0654957 0.046463 -0.00381257 0.0827439 0.0465256 0.0135959 0.0308755 
0.0465021 0.0309154 0.0135278 0.0615506 -0.00397001 0.0305532 0.0769512 -0.00401637 0.0131681 
0.0616851 -0.00410061 0.0478948 0.0770885 -0.00425397 0.0477679 0.0617869 -0.00417823 0.0652388 
0.0771583 -0.00443353 0.0825545 0.0618492 0.0132402 0.030569 0.0771759 0.0304658 0.0130627 
[...]
POINT_DATA 1524
VECTORS displacement float
0 0 0
0 0 0
0 0 0
0 0 0
0 0 0
0 0 0
0 0 0
0 0 0
0 0 0
0 0 0
0 0 0
0 0 0
0 0 0
0 0 0
0 0 0
0 0 0
0 0 0
0 0 0
0 0 0
0 0 0
0 0 0
0 0 0
0 0 0
0 0 0
0 0 0
-0.00446302 -0.0034857 -0.00366549
-0.00368204 -0.00377547 -0.00182385
-0.00350338 -0.00381018 7.87267e-06
-0.00367916 -0.00378373 0.00182396
-0.00445017 -0.00349962 0.00365202
-0.00369578 -0.00181144 -0.00379706
-0.00370365 -0.00181531 0.00381308
-0.00348957 1.1007e-05 -0.00392679
-0.00347474 1.79496e-05 0.00390302
-0.00369439 0.00180241 -0.00377096
-0.00370625 0.00181419 0.00379514
-0.00444601 0.0034719 -0.00365914
-0.00369007 0.00379258 -0.00183481
-0.00349998 0.00381731 2.52854e-06
-0.00368463 0.00379609 0.00182174
-0.00445048 0.00350112 0.00363928
-0.00747678 -0.00401903 -0.00403058
-0.00748554 -0.00419522 -0.00224643
-0.0075119 -0.00454058 -3.22618e-06
-0.00755243 -0.00423593 0.00221216
-0.00747842 -0.00403243 0.00399828
-0.00745369 -0.00225305 -0.00413973
-0.00745598 -0.00225474 0.00415357
-0.00751879 1.74954e-05 -0.00459617
-0.00747323 -1.94991e-05 0.00456092
-0.00759474 0.00222651 -0.00418508
-0.0076088 0.00218963 0.00414077
-0.00748806 0.00398769 -0.00403026
-0.00749944 0.00416894 -0.00226375
-0.00746628 0.00456035 -7.18334e-07
-0.00752428 0.00423326 0.00223559
-0.00747746 0.00400441 0.00403401
-0.0105504 -0.00348717 -0.00365358
-0.0112614 -0.00387218 -0.00180755
-0.0115156 -0.00395417 -5.51375e-08
-0.011321 -0.00383298 0.00183396
-0.0105562 -0.00348643 0.00364955
-0.0112078 -0.00180795 -0.00386954
-0.0112153 -0.00180374 0.00384654
-0.0115751 2.40611e-05 -0.00397665
-0.01158 4.00063e-05 0.00394767
-0.0112919 0.00181877 -0.00379218
-0.011301 0.00182215 0.00377719
-0.0105339 0.00348983 -0.00365495
-0.0112309 0.0038587 -0.00184532
-0.011532 0.00388961 2.14795e-05
-0.0113022 0.00391357 0.00178401
-0.0105308 0.00350644 0.00363742
-0.015 0 0
-0.015 0 0
-0.015 0 0
-0.015 0 0
-0.015 0 0
-0.015 0 0
-0.015 0 0
-0.015 0 0
-0.015 0 0
-0.015 0 0
-0.015 0 0
-0.015 0 0
-0.015 0 0
-0.015 0 0
-0.015 0 0
-0.015 0 0
-0.015 0 0
-0.015 0 0
-0.015 0 0
-0.015 0 0
-0.015 0 0
-0.015 0 0
-0.015 0 0
-0.015 0 0
-0.015 0 0
0 0 0
0 0 0
0 0 0
0 0 0
-0.00232442 -0.00201506 -0.00263063
-0.00362519 -0.00304048 -0.00308122
-0.00126488 -0.00232778 -0.00167539
-0.00282555 -0.0030571 -0.00200184
0 0 0
0 0 0
0 0 0
0 0 0
0 0 0
0 0 0
0 0 0
0 0 0
-0.00101419 -0.00242944 -0.000819133
-0.00251332 -0.00321834 -0.00138942
0 0 0
0 0 0
0 0 0
0 0 0
-0.00101228 -0.00251743 -0.000305924
-0.00244984 -0.0032036 -0.00090247
-0.000946671 -0.00240515 1.57293e-05
-0.002263 -0.00330799 1.31524e-05
-0.00101164 -0.002504 0.000335122
-0.00245207 -0.00319661 0.000920483
0 0 0
0 0 0
0 0 0
0 0 0
0 0 0
0 0 0
0 0 0
0 0 0
-0.00101046 -0.00240323 0.000823069
-0.00251337 -0.003202 0.00140359
0 0 0
0 0 0
-0.00126147 -0.00232243 0.0016711
-0.00282022 -0.00304737 0.00200544
-0.00232215 -0.00201642 0.00262287
-0.00361822 -0.00304435 0.00307389
0 0 0
0 0 0
0 0 0
0 0 0
0 0 0
0 0 0
-0.00154195 -0.000987677 -0.00240492
-0.00309138 -0.00249324 -0.00316547
-0.000751404 -0.00117566 -0.00170873
-0.00209457 -0.00252514 -0.00197127
-0.00104718 -0.000721278 -0.00236843
-0.00238539 -0.00134001 -0.00334594
-0.000970744 -0.000339276 -0.0024761
-0.00236957 -0.000409558 -0.00330898
0 0 0
0 0 0
0 0 0
0 0 0
-0.000582098 -0.0012574 -0.000801801
-0.0018706 -0.00259372 -0.00137548
-0.000623011 -0.000837784 -0.00126101
-0.00192108 -0.00139365 -0.00264556
-0.000520994 -0.000521265 -0.00129032
-0.00172155 -0.000445459 -0.00266045
-0.00169357 -0.00198235 -0.00144178
-0.00461432 -0.00352592 -0.00208853
-0.00155708 -0.00203074 -0.000932145
-0.00446275 -0.00361401 -0.000691098
-0.00164016 -0.00144367 -0.00204063
-0.00463085 -0.00205369 -0.00354839
-0.0015386 -0.000974712 -0.00204527
-0.0044776 -0.000667811 -0.00361224
0 0 0
0 0 0
0 0 0
0 0 0
0 0 0
0 0 0
0 0 0
0 0 0
-0.000520583 -0.00128599 -0.0002334
-0.00176604 -0.00264719 -0.000914679
-0.000522476 -0.001309 1.82901e-05
-0.00177498 -0.00266049 1.18056e-05
-0.000504997 -0.00128566 0.00028059
-0.0017483 -0.00265758 0.000953208
-0.00148023 -0.00204903 7.81519e-06
-0.00438562 -0.00364288 2.01977e-05
-0.00148943 -0.00206595 0.000478058
-0.00449589 -0.00356929 0.00137337
-0.00134679 -0.000990083 -0.000978058
-0.00427663 -0.000692609 -0.00290159
0 0 0
0 0 0
0 0 0
0 0 0
-0.000560324 -0.00123262 0.000850748
-0.00183756 -0.00257379 0.00140544
-0.00061363 -0.000826386 0.00127151
-0.00191952 -0.00138728 0.00266243
-0.000530157 -0.000518724 0.00129237
-0.0017333 -0.00043929 0.00265908
-0.00159314 -0.00198869 0.00148469
-0.00458813 -0.0034993 0.00205518
-0.00162961 -0.00142639 0.0020583
-0.00464456 -0.00206838 0.0035609
-0.00154563 -0.000951284 0.00205556
-0.0044695 -0.000693418 0.00362352
0 0 0
0 0 0
0 0 0
0 0 0
-0.000745744 -0.00117616 0.00172267
-0.00207683 -0.00251571 0.00197811
-0.00154169 -0.000994881 0.00241685
-0.00308468 -0.00250125 0.00316644
-0.00105155 -0.000723841 0.00237459
-0.00239162 -0.00134018 0.00335843
-0.00097541 -0.000335347 0.0024793
-0.0023746 -0.000396121 0.00330751
0 0 0
0 0 0
0 0 0
0 0 0
-0.00107778 1.42997e-05 -0.00254642
-0.00252955 -3.08986e-05 -0.00318459
0 0 0
0 0 0
0 0 0
0 0 0
0 0 0
0 0 0
0 0 0
0 0 0
-0.000503559 -2.30399e-06 -0.00131143
-0.00168207 -4.81373e-06 -0.00271418
-0.000522193 0.000276872 -0.00129362
-0.00178516 0.000924763 -0.00264428
-0.00145315 -1.54588e-06 -0.00210371
-0.00441161 -1.94024e-06 -0.00363094
-0.00148668 0.00045766 -0.00210112
-0.00451542 0.00135458 -0.00356416
0 0 0
0 0 0
0 0 0
0 0 0
-0.00131995 -0.000975595 -3.42543e-06
-0.00428445 -0.00289646 -1.06579e-05
-0.00133719 -0.000932308 0.000465226
-0.00431944 -0.00288091 0.00137647
-0.00133684 1.5276e-06 -0.000965599
-0.00427891 6.57267e-07 -0.00288726
-0.00124742 -6.54453e-06 0.000969709
-0.00427352 -1.03089e-05 0.00291639
-0.00134121 0.000464774 -0.00094159
-0.00432343 0.00135735 -0.00287154
-0.00130075 0.00045619 0.000965099
-0.00432302 0.00142897 0.00289763
-0.0012781 0.000971266 7.38319e-07
-0.00427982 0.00291113 -2.23635e-05
-0.00131503 0.000946212 0.000451581
-0.00433183 0.00288751 0.00139021
-0.00395048 -3.75521e-06 -9.14292e-06
-0.0110233 1.04009e-05 3.98994e-06
0 0 0
0 0 0
0 0 0
0 0 0
0 0 0
0 0 0
0 0 0
0 0 0
-0.000498542 -6.30968e-06 0.00126976
-0.00167367 -1.38627e-06 0.00267312
-0.000515265 0.000249029 0.00125785
-0.00178114 0.000900438 0.00263742
-0.00140835 -0.000980291 0.00150435
-0.00440718 -0.00284034 0.00209608
-0.00144966 -1.86446e-05 0.00205481
-0.00437514 1.98614e-06 0.00365977
-0.00147828 0.000448597 0.00205526
-0.00450366 0.00139353 0.00359312
-0.00142068 0.000945872 0.00148588
-0.00440623 0.00284311 0.00209965
0 0 0
0 0 0
-0.00107261 2.10118e-05 0.00253397
-0.00251884 -2.25377e-05 0.00316354
0 0 0
0 0 0
0 0 0
0 0 0
0 0 0
0 0 0
-0.00103711 0.000517762 -0.0024537
-0.00244405 0.000414986 -0.00325982
-0.000936697 0.000714584 -0.0023394
-0.00230371 0.00134477 -0.0033135
-0.00150648 0.000948035 -0.00237529
-0.00308561 0.00249343 -0.00314744
-0.000743443 0.00114268 -0.00170542
-0.00208542 0.00255816 -0.00195946
0 0 0
0 0 0
0 0 0
0 0 0
-0.000569183 0.000848153 -0.00125717
-0.0018393 0.00140824 -0.00260343
-0.000573973 0.00126199 -0.00079693
-0.00186419 0.00261159 -0.00137062
-0.00160946 0.0014663 -0.00200379
-0.00462114 0.0020246 -0.00350079
-0.00164133 0.00201742 -0.00143678
-0.00461056 0.00352835 -0.00208447
-0.00153397 0.00204477 -0.000935395
-0.00446311 0.00360472 -0.000698885
0 0 0
0 0 0
0 0 0
0 0 0
0 0 0
0 0 0
0 0 0
0 0 0
-0.000513949 0.001283 -0.000235866
-0.00175867 0.00265986 -0.000916131
-0.000514774 0.0013075 8.23748e-06
-0.00177044 0.00266545 5.35714e-06
-0.000507158 0.00129009 0.000263586
-0.00175407 0.00267226 0.000943631
-0.00141327 0.00149561 -0.000977181
-0.0044177 0.00206837 -0.00283423
-0.00145898 0.00205675 3.1237e-06
-0.00438469 0.00364839 1.32132e-05
-0.0014944 0.00206957 0.000467253
-0.00450782 0.00357774 0.00138274
0 0 0
0 0 0
0 0 0
0 0 0
-0.00057406 0.000814236 0.00125722
-0.00185051 0.00138973 0.00262203
-0.00056255 0.00123193 0.000835275
-0.00184553 0.00258683 0.00139604
-0.00161183 0.00142877 0.00202775
-0.00463249 0.00207723 0.00353906
-0.00157359 0.00200976 0.00145781
-0.00459042 0.0035104 0.0020563
0 0 0
0 0 0
0 0 0
0 0 0
-0.00103784 0.000506496 0.00244999
-0.00244084 0.00040937 0.00323774
-0.000944859 0.000705176 0.00234672
-0.00231663 0.00133828 0.00332679
-0.000740681 0.00113106 0.00170941
-0.00207525 0.00253478 0.00196189
-0.00150834 0.000944281 0.00237867
-0.00308726 0.00249801 0.00314579
0 0 0
0 0 0
-0.00232739 0.00198513 -0.00262908
-0.00363117 0.00303558 -0.00307499
-0.00126398 0.00231267 -0.00167662
-0.00283332 0.00308375 -0.00200526
0 0 0
0 0 0
-0.00101991 0.00243123 -0.000814111
-0.00252755 0.00323386 -0.00138076
0 0 0
0 0 0
-0.00101168 0.00251688 -0.000308461
-0.00245094 0.00321212 -0.000898005
-0.000947433 0.00240557 7.75771e-06
-0.00226218 0.00331385 6.57871e-06
-0.00101489 0.00250954 0.000325995
-0.00245956 0.00321114 0.000911223
0 0 0
0 0 0
-0.0010176 0.00241019 0.000819902
-0.00252756 0.0032163 0.00139138
-0.00126339 0.00230455 0.00167203
-0.00283264 0.00306672 0.00200178
-0.00232936 0.00198322 0.00262278
-0.00363594 0.00303943 0.00306503
-0.00419927 -0.00354533 -0.00308534
-0.00398252 -0.00365752 -0.0024262
-0.00417938 -0.00301874 -0.00361598
-0.0039226 -0.00243939 -0.00367279
-0.00548779 -0.00384163 -0.00385119
-0.00647259 -0.00400232 -0.00398402
-0.00525307 -0.00331468 -0.00390122
-0.00626229 -0.00287716 -0.00412922
-0.00355648 -0.00380188 -0.00117095
-0.00353699 -0.00381257 -0.000589485
-0.00347441 -0.00307072 -0.00245781
-0.00349786 -0.00241794 -0.00313888
-0.00511611 -0.00397001 -0.00278013
-0.00638217 -0.00401637 -0.00349857
-0.00498153 -0.00410061 -0.00210521
-0.00624487 -0.00425397 -0.00223213
-0.00487979 -0.00417823 -0.00142785
-0.00617507 -0.00443353 -0.000778808
-0.00481748 -0.00342646 -0.00276435
-0.00615741 -0.00286751 -0.00360393
-0.00353177 -0.00381831 0.000600024
-0.00354747 -0.0038074 0.00117249
-0.00478378 -0.00420605 8.0815e-06
-0.00612526 -0.0044557 6.42439e-06
-0.00397738 -0.00365748 0.00241936
-0.00419293 -0.00354917 0.00307434
-0.00345239 -0.00307003 0.0024516
-0.00348791 -0.00242249 0.00315285
-0.00485004 -0.00416952 0.00138686
-0.00613166 -0.00442195 0.000764872
-0.0050029 -0.0041005 0.0020766
-0.00630147 -0.00425198 0.00218276
-0.0051098 -0.00397154 0.00275594
-0.00637529 -0.00401803 0.00346135
-0.00480291 -0.0034274 0.00273977
-0.00616068 -0.00287184 0.00359677
-0.00416871 -0.00303358 0.00361317
-0.003919 -0.00245231 0.00368589
-0.00547613 -0.0038626 0.00382447
-0.00646538 -0.00402056 0.00394802
-0.00524213 -0.00333599 0.00389097
-0.00625828 -0.00289523 0.00412822
-0.00359053 -0.00118753 -0.00382268
-0.00355472 -0.000578893 -0.00384199
-0.00493498 -0.00208849 -0.00412547
-0.00619763 -0.00222563 -0.00423886
-0.00360054 -0.00118353 0.00383425
-0.00355804 -0.000569834 0.00384379
-0.00494553 -0.00210264 0.00414119
-0.00620793 -0.00224306 0.00425323
-0.00356009 0.0005773 -0.00383446
-0.00360494 0.00117924 -0.00380792
-0.0048258 -0.000671933 -0.00422048
-0.00615691 -0.0014776 -0.00433108
-0.00482549 1.06802e-05 -0.00427641
-0.00618194 2.53311e-05 -0.00449496
-0.00481153 0.000702612 -0.00419993
-0.00616843 0.0014961 -0.00432054
-0.00355615 0.000579548 0.00381654
-0.00360334 0.00117706 0.00380586
-0.00482663 -0.000679936 0.00422736
-0.00617119 -0.00150101 0.00434669
-0.0048056 1.20618e-05 0.00426302
-0.00614852 8.92849e-06 0.00448649
-0.0048054 0.000713982 0.00421155
-0.00616488 0.00151373 0.00434766
-0.003913 0.00244948 -0.0036543
-0.00417391 0.0030235 -0.00359638
-0.00347195 0.00243513 -0.00311139
-0.00345587 0.00310664 -0.00244475
-0.00499614 0.00204614 -0.00411465
-0.0063043 0.00215611 -0.00426271
-0.0034734 0.00244389 0.0031242
-0.00344818 0.00309655 0.0024341
-0.00392072 0.00247043 0.00366534
-0.0041794 0.00304861 0.00359339
-0.00500362 0.00208711 0.00414323
-0.00631253 0.00220198 0.00426674
-0.00418198 0.00355279 -0.00308809
-0.00396972 0.00368383 -0.00243762
-0.0052424 0.00330029 -0.00389159
-0.00629409 0.00283673 -0.00411882
-0.00546403 0.00382998 -0.00385099
-0.00646032 0.00397329 -0.0039849
-0.00355219 0.00381423 -0.00117579
-0.00352945 0.00382098 -0.000593396
-0.00480035 0.00343382 -0.00275343
-0.00617461 0.00283188 -0.00359513
-0.00508952 0.00397447 -0.00278282
-0.00635933 0.00399205 -0.00349367
-0.00497645 0.00412225 -0.00211783
-0.00624888 0.00425151 -0.00224871
-0.00487074 0.00417798 -0.00142918
-0.00615887 0.00441445 -0.000778886
-0.00353269 0.00382905 0.00059456
-0.00355367 0.00382476 0.00116892
-0.00477929 0.00420648 3.60291e-06
-0.00611203 0.0044547 4.10269e-06
-0.00397353 0.00367831 0.00241569
-0.00419152 0.0035606 0.00306587
-0.00479782 0.003445 0.00273377
-0.00618361 0.00286977 0.00359607
-0.00485238 0.00418001 0.00138953
-0.00612686 0.0044099 0.000765678
-0.00498373 0.00411822 0.00207513
-0.00626653 0.00426534 0.00219373
-0.00509592 0.00398337 0.00274887
-0.00636065 0.00401892 0.00347182
-0.00524551 0.00334616 0.00388645
-0.00629075 0.00288282 0.00412974
-0.00547669 0.00387312 0.00382244
-0.00646239 0.0040128 0.00396332
-0.00748857 -0.00404947 -0.00351603
-0.00748832 -0.00411278 -0.00291075
-0.00747904 -0.00349339 -0.00403687
-0.00746972 -0.00291059 -0.00408577
-0.00850308 -0.00399955 -0.00394976
-0.00951279 -0.00383663 -0.00382856
-0.0086087 -0.00400034 -0.00345799
-0.00988099 -0.00394875 -0.00275389
-0.007506 -0.00431894 -0.00152515
-0.00752961 -0.00443877 -0.000766906
-0.00751136 -0.00356714 -0.00290944
-0.00749778 -0.00287938 -0.00356003
-0.0075247 -0.00294963 -0.00295823
-0.00749807 -0.00147781 -0.00375507
-0.00872419 -0.00417941 -0.00220119
-0.00997588 -0.00406579 -0.00207709
-0.00893998 -0.00291515 -0.00292456
-0.0103899 -0.00136667 -0.00358345
-0.00751066 -0.00444496 0.000747607
-0.00750696 -0.00435134 0.00150108
-0.00751779 -0.00313696 -0.00154945
-0.00749014 -0.00154318 -0.00312535
-0.00748671 -0.00310795 0.00153655
-0.0075031 -0.00154705 0.00312174
-0.00881815 -0.00432907 -0.000766957
-0.0100687 -0.00412086 -0.00141701
-0.008823 -0.00444505 1.06331e-05
-0.0101744 -0.00426718 8.65819e-06
-0.00885597 -0.00439994 0.000753147
-0.0101412 -0.00419299 0.00140648
-0.00909248 -0.00308364 -0.00149526
-0.0106129 -0.00139822 -0.00291711
-0.00906515 -0.00305376 0.00148139
-0.0106405 -0.00139545 0.00289908
-0.0106984 -0.00288327 -1.32628e-06
-0.0137271 -0.0009663 1.58671e-05
-0.0106886 -0.0028973 0.000694487
-0.0136934 -0.000992938 0.000971525
-0.00750191 -0.00410417 0.00287655
-0.00748639 -0.00404147 0.00348296
-0.00751462 -0.00356621 0.00288689
-0.00749795 -0.0028698 0.0035572
-0.00751666 -0.00291642 0.00299217
-0.00751798 -0.00147785 0.00378922
-0.00877465 -0.00416699 0.00219615
-0.0100349 -0.00404472 0.00209501
-0.00893684 -0.0029008 0.00291965
-0.010402 -0.00135441 0.00357783
-0.00748377 -0.0035022 0.00401544
-0.00747145 -0.0029167 0.00407664
-0.00861226 -0.00399271 0.00344548
-0.00989894 -0.00394386 0.00275688
-0.00851249 -0.00399525 0.00393904
-0.00952214 -0.00382996 0.00382535
-0.00748963 -0.00154272 -0.00425614
-0.00749434 -0.000792735 -0.00439708
-0.00871016 -0.00287258 -0.00409733
-0.00974304 -0.00330364 -0.00387628
-0.00882857 -0.00285356 -0.00354872
-0.0101575 -0.00341764 -0.00273184
-0.00875544 -0.00221288 -0.00417611
-0.00998173 -0.00208486 -0.00405252
-0.0087801 -0.00150729 -0.00425451
-0.0101634 -0.000728432 -0.00422668
-0.00749522 -0.00154582 0.00428508
-0.00749389 -0.000796059 0.00441983
-0.00882459 -0.00284778 0.00354296
-0.0101611 -0.00340811 0.00273178
-0.0087134 -0.00287143 0.00409335
-0.00974588 -0.00330006 0.00387273
-0.00876001 -0.00221346 0.00418317
-0.00998693 -0.00208665 0.00405225
-0.00878768 -0.00150702 0.00425952
-0.0101903 -0.00071806 0.0042145
-0.00750553 0.000745063 -0.00449665
-0.0075257 0.00150055 -0.00434723
-0.00746168 0.00152994 -0.0031298
-0.00749125 0.00312384 -0.00155813
-0.00885224 1.73857e-05 -0.00449329
-0.0102251 1.29528e-05 -0.00430086
-0.00905269 0.00148464 -0.00307648
-0.0106401 0.00291677 -0.00141056
-0.0107062 -2.1846e-06 -0.00290209
-0.0137222 8.49708e-06 -0.000965751
-0.0106891 0.00069899 -0.00290472
-0.0136945 0.000978804 -0.00098647
-0.007495 0.000728763 0.00445245
-0.00753295 0.00148433 0.00429828
-0.00751242 0.00154819 0.00311455
-0.00749219 0.00311669 0.00152826
-0.0074823 0.00147792 0.00377917
-0.00746904 0.00295024 0.00294819
-0.00884558 7.47644e-06 0.00447252
-0.0102324 1.7554e-05 0.00428455
-0.00910017 0.00149578 0.00305676
-0.0106278 0.00289578 0.00138245
-0.00897386 0.00142838 0.00375257
-0.0103827 0.00278977 0.00277468
-0.0107314 -1.76687e-06 0.00287684
-0.0136925 -7.4659e-06 0.000960353
-0.0105982 1.1231e-05 0.00362287
-0.0135574 -1.65873e-05 0.00209342
-0.0107434 0.000688586 0.00290556
-0.0136716 0.000950107 0.000969059
-0.0105468 0.000699651 0.00359389
-0.0135012 0.000918611 0.00207879
-0.00750697 0.00288729 -0.00407786
-0.00748286 0.00346296 -0.00402953
-0.00750398 0.00289125 -0.00355477
-0.00748228 0.00355659 -0.00288521
-0.00748965 0.00299596 -0.0029193
-0.00749717 0.00379991 -0.00148568
-0.00879579 0.00150922 -0.00432135
-0.0101573 0.000715038 -0.00422308
-0.00877023 0.0021923 -0.0042366
-0.0100216 0.00206862 -0.00411081
-0.0087123 0.00283028 -0.00408538
-0.00973479 0.00330659 -0.00388135
-0.00882345 0.00283978 -0.00356982
-0.0101294 0.00344109 -0.00274089
-0.00891509 0.0029183 -0.00293127
-0.0104 0.00359232 -0.00138201
-0.0105222 0.00210245 -0.00284319
-0.0136018 0.0015089 -0.000953337
-0.00750858 0.00287795 0.00354894
-0.00748959 0.0035625 0.00289955
-0.00750914 0.00286735 0.00404232
-0.00748255 0.00346643 0.00401466
-0.00882932 0.00151388 0.00430194
-0.0101869 0.000710989 0.00421778
-0.00880812 0.00223204 0.00420122
-0.010057 0.00210937 0.00408915
-0.008807 0.0028374 0.00357121
-0.0101405 0.00344886 0.00274134
-0.00872833 0.00285452 0.00409302
-0.0097308 0.00332364 0.00387922
-0.010335 0.00208282 0.00350011
-0.0133981 0.00140798 0.00204498
-0.00747658 0.00401207 -0.00351765
-0.00747657 0.00408286 -0.00291783
-0.00851073 0.00397244 -0.00397516
-0.00951462 0.00383852 -0.00384049
-0.00860837 0.00398368 -0.00347876
-0.00988143 0.00395548 -0.0027542
-0.00751892 0.00429623 -0.00154507
-0.00750761 0.00443056 -0.000777256
-0.00876829 0.00418807 -0.00223021
-0.0100388 0.00406208 -0.0021121
-0.00750929 0.00441924 0.000748807
-0.00751713 0.00432123 0.00150963
-0.00885912 0.00436027 -0.000774478
-0.0101642 0.00414983 -0.00140869
-0.008846 0.00445379 6.46263e-06
-0.0102114 0.00424866 1.23686e-05
-0.0088496 0.00433453 0.000769251
-0.0101566 0.00413166 0.00140716
-0.0107134 0.0028805 -6.91783e-06
-0.0136796 0.000976061 -3.4273e-06
-0.0105873 0.00361387 -2.28095e-06
-0.0135281 0.00210664 -4.20679e-06
-0.00749127 0.00410124 0.00290598
-0.00748329 0.00403523 0.00351295
-0.00879654 0.00417389 0.00221697
-0.0100482 0.00406476 0.00209605
-0.00861383 0.00399784 0.00347096
-0.00988906 0.00397637 0.00276221
-0.00851492 0.00398737 0.00396477
-0.00950674 0.00385128 0.00382788
-0.0107997 -0.00356629 -0.00308143
-0.0110015 -0.00371113 -0.00242158
-0.0108055 -0.0030385 -0.00360422
-0.0110517 -0.00246326 -0.00368579
-0.0113474 -0.00304915 -0.00307549
-0.0126572 -0.00199352 -0.00262823
-0.0118882 -0.00250734 -0.00315736
-0.0134728 -0.000940265 -0.00237718
-0.0114086 -0.00393627 -0.00117878
-0.0114784 -0.0039502 -0.000582606
-0.0114879 -0.00313676 -0.00246289
-0.0114799 -0.00245348 -0.00316015
-0.0118394 -0.00249521 -0.00252334
-0.0118209 -0.00114439 -0.00328061
-0.0121379 -0.00306966 -0.00200244
-0.0137258 -0.00231199 -0.0016733
-0.0124259 -0.00323397 -0.0013819
-0.013968 -0.00239267 -0.000813797
-0.0124796 -0.00326283 -0.00090867
-0.0139688 -0.00250641 -0.00031725
-0.0128777 -0.00253928 -0.00195655
-0.0142449 -0.00112029 -0.00169686
-0.0131214 -0.00260077 -0.00136977
-0.0144344 -0.00118083 -0.000811318
-0.013246 -0.00270668 -0.000930052
-0.0144982 -0.00126008 -0.000257274
-0.0133822 -0.00199818 -0.00144334
-0.0145748 -0.000563678 -0.000843901
-0.0134651 -0.00204939 -0.00091527
-0.0146295 -0.000533633 -0.000254043
-0.0115031 -0.00387567 0.000607808
-0.0114649 -0.00385737 0.00121661
-0.0121472 -0.00259155 -0.00121368