# vtk DataFile Version 3.0
vtk output at time 0.2
ASCII
DATASET UNSTRUCTURED_GRID
POINTS 1524 float
0 0 0 0 0 0.05 0 0 0.1 
0 0 0.15 0 0 0.2 0 0.05 0 
0 0.05 0.05 0 0.05 0.1 0 0.05 0.15 
0 0.05 0.2 0 0.1 0 0 0.1 0.05 
0 0.1 0.1 0 0.1 0.15 0 0.1 0.2 
0 0.15 0 0 0.15 0.05 0 0.15 0.1 
0 0.15 0.15 0 0.15 0.2 0 0.2 0 
0 0.2 0.05 0 0.2 0.1 0 0.2 0.15 
0 0.2 0.2 0.0470627 -0.00238106 -0.00249798 0.0475743 -0.00258293 0.0487657 
0.0476832 -0.00261348 0.100006 0.0475752 -0.00258893 0.151234 0.047071 -0.00239081 0.202488 
0.047564 0.0487725 -0.00259835 0.0475586 0.0487695 0.20261 0.0476884 0.100009 -0.00269171 
0.047698 0.100013 0.202676 0.0475654 0.151221 -0.00258002 0.0475569 0.15123 0.202598 
0.0470733 0.20237 -0.00249477 0.0475677 0.202595 0.0487573 0.0476855 0.202618 0.100002 
0.0475716 0.202597 0.151234 0.0470703 0.20239 0.202481 0.0950153 -0.00274769 -0.00275709 
0.095011 -0.0028754 0.0484672 0.0949942 -0.00311829 0.0999983 0.0949661 -0.00290347 0.151508 
0.095014 -0.00275777 0.202735 0.0950307 0.0484644 -0.00283705 0.0950292 0.0484626 0.202848 
0.0949881 0.100012 -0.00315705 0.0950186 0.0999865 0.203132 0.0949387 0.151515 -0.00287096 
0.0949257 0.151491 0.202839 0.0950078 0.202727 -0.00275675 0.0949999 0.202859 0.0484553 
0.0950243 0.203132 0.1 0.0949832 0.202902 0.151524 0.0950147 0.202738 0.20276 
0.142929 -0.00238124 -0.00249018 0.14246 -0.00264953 0.0487774 0.142302 -0.00271108 0.0999995 
0.142422 -0.00262155 0.15124 0.142926 -0.0023817 0.202487 0.1425 0.0487764 -0.00264802 
0.142497 0.0487786 0.202635 0.142265 0.100017 -0.00272471 0.142262 0.100029 0.202707 
0.142441 0.151231 -0.00259478 0.142439 0.151235 0.202585 0.14294 0.202382 -0.00249176 
0.142487 0.20264 0.0487494 0.142291 0.202667 0.100016 0.142437 0.202681 0.151208 
0.142942 0.202395 0.20248 0.19 0 0 0.19 0 0.05 
0.19 0 0.1 0.19 0 0.15 0.19 0 0.2 
0.19 0.05 0 0.19 0.05 0.05 0.19 0.05 0.1 
0.19 0.05 0.15 0.19 0.05 0.2 0.19 0.1 0 
0.19 0.1 0.05 0.19 0.1 0.1 0.19 0.1 0.15 
0.19 0.1 0.2 0.19 0.15 0 0.19 0.15 0.05 
0.19 0.15 0.1 0.19 0.15 0.15 0.19 0.15 0.2 
0.19 0.2 0 0.19 0.2 0.05 0.19 0.2 0.1 
0.19 0.2 0.15 0.19 0.2 0.2 0 0 0.0166667 
0 0 0.0333333 0 0.0166667 0 0 0.0333333 0 
0.0152032 -0.00136784 -0.00178777 0.0309794 -0.00207041 -0.00210141 0.0158779 -0.00157177 0.0155437 
0.0314936 -0.00208638 0.0319808 0 0 0.0666667 0 0 0.0833333 
0 0.0166667 0.0333333 0 0.0333333 0.0166667 0 0.0166667 0.05 
0 0.0333333 0.05 0 0.0166667 0.0666667 0 0.0333333 0.0833333 
0.0160315 -0.00164926 0.0494516 0.031696 -0.00220013 0.0490625 0 0 0.116667 
0 0 0.133333 0 0.0166667 0.1 0 0.0333333 0.1 
0.0160294 -0.00171515 0.0831256 0.0317311 -0.0021935 0.0660585 0.0160602 -0.00164076 0.10001 
0.0318502 -0.00226571 0.100009 0.0160291 -0.00170673 0.116893 0.0317287 -0.00218976 0.133953 
0 0 0.166667 0 0 0.183333 0 0.0166667 0.133333 
0 0.0333333 0.116667 0 0.0166667 0.15 0 0.0333333 0.15 
0 0.0166667 0.166667 0 0.0333333 0.183333 0.0160327 -0.00163243 0.150551 
0.0316951 -0.00218987 0.150947 0 0.0166667 0.2 0 0.0333333 0.2 
0.0158797 -0.00156852 0.184454 0.0314966 -0.00208027 0.168021 0.0152045 -0.00136903 0.201783 
0.0309838 -0.00207366 0.202096 0 0.05 0.0166667 0 0.05 0.0333333 
0 0.0666667 0 0 0.0833333 0 0 0.0666667 0.0166667 
0 0.0833333 0.0333333 0.0156863 0.032673 -0.00163614 0.0313265 0.0149756 -0.00215808 
0.0161968 0.0325448 0.0155155 0.031974 0.014952 0.0320062 0.016005 0.0495177 -0.00160812 
0.0317816 0.0490964 -0.00228432 0.0160553 0.0664397 -0.00168385 0.0317818 0.0830598 -0.00226651 
0 0.05 0.0666667 0 0.05 0.0833333 0 0.0666667 0.05 
0 0.0833333 0.05 0.0162927 0.0324849 0.049462 0.0321135 0.0149025 0.0490748 
0.0162687 0.0494365 0.0324827 0.0320839 0.0490601 0.0148663 0.0163305 0.0663148 0.0324615 
0.0322049 0.0830333 0.0148533 0.0322226 0.0319893 0.049027 0.0636093 0.0142578 0.048582 
0.0323074 0.0319549 0.066038 0.063704 0.0141922 0.0828664 0.0322595 0.0490252 0.0319502 
0.0635961 0.048606 0.0142426 0.0323186 0.0660087 0.0319463 0.0636928 0.0828824 0.0141933 
0 0.05 0.116667 0 0.05 0.133333 0 0.0666667 0.0833333 
0 0.0833333 0.0666667 0 0.0666667 0.1 0 0.0833333 0.1 
0 0.0666667 0.116667 0 0.0833333 0.133333 0.0163296 0.0324621 0.0831758 
0.0321792 0.0148632 0.0660505 0.0163269 0.0324459 0.100012 0.0321699 0.0148492 0.100008 
0.0163396 0.032461 0.116855 0.0321901 0.0148551 0.133976 0.0323535 0.0319391 0.100006 
0.0637537 0.014171 0.100014 0.0323481 0.031929 0.116989 0.063684 0.0142249 0.134265 
0.0324372 0.0659967 0.0660051 0.0638221 0.0828635 0.0313496 0 0.05 0.166667 
0 0.05 0.183333 0 0.0666667 0.15 0 0.0833333 0.15 
0.0163068 0.0325012 0.150571 0.0321341 0.0149162 0.150945 0.0162744 0.0494444 0.167524 
0.0320846 0.0490644 0.185145 0.0163248 0.0663172 0.16754 0.0321976 0.0830376 0.185146 
0.0322861 0.0319861 0.151002 0.063626 0.0142757 0.151395 0.0322661 0.0490372 0.168062 
0.0635871 0.0485956 0.185766 0.0323161 0.0660251 0.168062 0.0636992 0.0828643 0.185815 
0 0.0666667 0.183333 0 0.0833333 0.166667 0 0.0666667 0.2 
0 0.0833333 0.2 0.0162007 0.0325443 0.184494 0.0319851 0.0149582 0.167998 
0.0156866 0.032668 0.201644 0.0313307 0.0149696 0.202158 0.0160021 0.0495159 0.201612 
0.0317773 0.0490961 0.202293 0.0160524 0.0664423 0.201686 0.0317783 0.0830688 0.202265 
0 0.1 0.0166667 0 0.1 0.0333333 0 0.116667 0 
0 0.133333 0 0.0159852 0.100008 -0.00173413 0.031669 0.0999794 -0.00218551 
0 0.1 0.0666667 0 0.1 0.0833333 0 0.116667 0.0333333 
0 0.133333 0.0166667 0 0.116667 0.05 0 0.133333 0.05 
0 0.116667 0.0666667 0 0.133333 0.0833333 0.0163412 0.0999975 0.032443 
0.032232 0.099997 0.014813 0.0163283 0.116852 0.0324573 0.0321662 0.133956 0.0148659 
0.0323704 0.0999986 0.0319033 0.0637351 0.0999993 0.0141792 0.0323503 0.116975 0.0319057 
0.0636711 0.134253 0.0142279 0 0.1 0.116667 0 0.1 0.133333 
0 0.116667 0.1 0 0.133333 0.1 0.0324514 0.0660045 0.0999984 
0.0638153 0.0313519 0.099993 0.0324422 0.0660341 0.116981 0.0637958 0.0313653 0.134268 
0.0324396 0.100001 0.0660112 0.0638179 0.100001 0.0313581 0.0324988 0.099996 0.133991 
0.0638223 0.0999929 0.168662 0.032439 0.116981 0.0660284 0.0637927 0.134255 0.0313715 
0.0324662 0.116976 0.133988 0.0637935 0.134304 0.168647 0.0324785 0.133993 0.100001 
0.0638185 0.168659 0.0999846 0.0324567 0.133976 0.116973 0.063787 0.168639 0.134278 
0.0640237 0.0999978 0.0999938 0.125994 0.100007 0.100003 0 0.1 0.166667 
0 0.1 0.183333 0 0.116667 0.133333 0 0.133333 0.116667 
0 0.116667 0.15 0 0.133333 0.15 0 0.116667 0.166667 
0 0.133333 0.183333 0.016344 0.0999949 0.167529 0.0322372 0.0999991 0.18516 
0.0163322 0.116833 0.167519 0.0321684 0.13394 0.18513 0.0324007 0.0660037 0.151018 
0.0637416 0.031396 0.151426 0.0323729 0.0999875 0.168064 0.0637604 0.100001 0.185841 
0.0323556 0.116969 0.168064 0.0636779 0.134279 0.185792 0.0323921 0.133973 0.151007 
0.0637415 0.168606 0.151429 0 0.116667 0.2 0 0.133333 0.2 
0.0159881 0.100013 0.201725 0.0316755 0.0999849 0.202171 0 0.15 0.0166667 
0 0.15 0.0333333 0 0.166667 0 0 0.183333 0 
0 0.166667 0.0166667 0 0.183333 0.0333333 0.016012 0.133679 -0.00166781 
0.0317304 0.116945 -0.00223275 0.0160756 0.150477 -0.00158729 0.031834 0.150906 -0.00226116 
0.0157074 0.167301 -0.00161503 0.0313294 0.185023 -0.00214618 0.0162016 0.167434 0.0155183 
0.0319797 0.185071 0.0320136 0 0.15 0.0666667 0 0.15 0.0833333 
0 0.166667 0.05 0 0.183333 0.05 0.0163017 0.15057 0.0324852 
0.032135 0.150949 0.0148969 0.0162981 0.167519 0.0494651 0.0321173 0.18511 0.0490776 
0.0322753 0.15099 0.0319767 0.0636038 0.151375 0.0142748 0.0322562 0.168035 0.0490305 
0.0636106 0.185744 0.0485844 0.032322 0.168055 0.066036 0.0637036 0.185802 0.0828608 
0 0.15 0.116667 0 0.15 0.133333 0 0.166667 0.0833333 
0 0.183333 0.0666667 0 0.166667 0.1 0 0.183333 0.1 
0 0.166667 0.116667 0 0.183333 0.133333 0.0163339 0.167536 0.0831743 
0.0321837 0.185146 0.0660496 0.0163318 0.167553 0.100005 0.0321728 0.185154 0.100004 
0.0163383 0.167542 0.116844 0.0321864 0.185155 0.13397 0.0323968 0.151013 0.0660065 
0.0637342 0.151407 0.0313999 0.0323673 0.168066 0.100002 0.0637547 0.185833 0.100009 
0.0323448 0.168074 0.116982 0.0636759 0.185781 0.134272 0 0.15 0.166667 
0 0.15 0.183333 0 0.166667 0.15 0 0.183333 0.15 
0.0162983 0.150547 0.167515 0.0321275 0.150937 0.185117 0.0163053 0.167499 0.150561 
0.0321291 0.185093 0.15094 0.0322755 0.150965 0.168041 0.0635962 0.151411 0.185752 
0.0322987 0.168028 0.150984 0.0636244 0.185732 0.151397 0 0.166667 0.183333 
0 0.183333 0.166667 0 0.166667 0.2 0 0.183333 0.2 
0.0160111 0.133672 0.201665 0.0317318 0.116942 0.202218 0.0160701 0.150472 0.201592 
0.0318249 0.150902 0.202271 0.0162032 0.167426 0.184484 0.0319861 0.185055 0.167988 
0.0157059 0.167299 0.201617 0.0313278 0.185028 0.202145 0 0.2 0.0166667 
0 0.2 0.0333333 0.0152008 0.201348 -0.00178693 0.0309754 0.202066 -0.00209854 
0.0158778 0.201563 0.0155426 0.0314889 0.202105 0.0319771 0 0.2 0.0666667 
0 0.2 0.0833333 0.0160277 0.201651 0.0494552 0.0316866 0.202212 0.0490677 
0 0.2 0.116667 0 0.2 0.133333 0.0160298 0.201715 0.0831243 
0.0317302 0.2022 0.0660614 0.0160598 0.201641 0.100005 0.0318509 0.20227 0.100005 
0.0160272 0.201711 0.116887 0.0317242 0.2022 0.133947 0 0.2 0.166667 
0 0.2 0.183333 0.0160285 0.201637 0.150549 0.0316865 0.2022 0.150939 
0.0158778 0.201558 0.184454 0.0314891 0.202094 0.16802 0.0151992 0.201348 0.201782 
0.0309721 0.20207 0.202091 0.0472386 -0.00241976 0.0145674 0.0473766 -0.0024986 0.0316873 
0.0472525 0.0146108 -0.00246667 0.047418 0.0316757 -0.00250923 0.0630335 -0.00262493 -0.00263016 
0.0790301 -0.0027358 -0.00272316 0.0631898 0.0144059 -0.00266572 0.0791684 0.0313714 -0.00282608 
0.0476471 -0.00260162 0.0658725 0.0476604 -0.00261238 0.082933 0.0477162 0.0145763 0.031666 
0.0477 0.0316929 0.0145281 0.0632773 -0.00271443 0.0314404 0.0790903 -0.00274567 0.0142777 
0.063366 -0.00280719 0.048569 0.079181 -0.00291432 0.0484788 0.0634294 -0.00286357 0.0656962 
0.0792228 -0.00304327 0.0828029 0.0634775 0.0143283 0.0314526 0.0792397 0.0313791 0.014203 
[...]
POINT_DATA 1524
VECTORS displacement float
0 0 0
0 0 0
0 0 0
0 0 0
0 0 0
0 0 0
0 0 0
0 0 0
0 0 0
0 0 0
0 0 0
0 0 0
0 0 0
0 0 0
0 0 0
0 0 0
0 0 0
0 0 0
0 0 0
0 0 0
0 0 0
0 0 0
0 0 0
0 0 0
0 0 0
-0.00293731 -0.00238106 -0.00249798
-0.00242568 -0.00258293 -0.00123435
-0.0023168 -0.00261348 5.72006e-06
-0.00242475 -0.00258893 0.00123443
-0.00292904 -0.00239081 0.00248812
-0.00243599 -0.00122746 -0.00259835
-0.0024414 -0.00123051 0.00260971
-0.00231163 8.70114e-06 -0.00269171
-0.00230196 1.29253e-05 0.00267579
-0.00243458 0.00122123 -0.00258002
-0.00244307 0.00122995 0.00259826
-0.00292671 0.00236976 -0.00249477
-0.00243226 0.00259475 -0.00124275
-0.00231448 0.00261822 2.18565e-06
-0.00242843 0.00259697 0.00123364
-0.00292974 0.00239036 0.00248091
-0.00498474 -0.00274769 -0.00275709
-0.00498896 -0.0028754 -0.00153277
-0.00500576 -0.00311829 -1.6823e-06
-0.00503388 -0.00290347 0.00150754
-0.00498605 -0.00275777 0.00273472
-0.00496934 -0.00153556 -0.00283705
-0.00497076 -0.00153744 0.00284788
-0.00501189 1.24886e-05 -0.00315705
-0.00498144 -1.347e-05 0.00313198
-0.00506128 0.00151537 -0.00287096
-0.00507426 0.00149064 0.00283863
-0.00499219 0.00272658 -0.00275675
-0.00500006 0.00285865 -0.00154469
-0.0049757 0.00313205 1.89618e-07
-0.00501682 0.00290201 0.00152447
-0.00498533 0.00273841 0.00275976
-0.00707065 -0.00238124 -0.00249018
-0.00753977 -0.00264953 -0.00122263
-0.00769799 -0.00271108 -4.55122e-07
-0.00757765 -0.00262155 0.00124027
-0.00707447 -0.0023817 0.00248695
-0.00749997 -0.00122358 -0.00264802
-0.00750272 -0.00122136 0.00263489
-0.00773509 1.67583e-05 -0.00272471
-0.00773765 2.86946e-05 0.00270658
-0.00755904 0.00123099 -0.00259478
-0.00756147 0.00123507 0.00258467
-0.00706038 0.00238217 -0.00249176
-0.00751334 0.00264043 -0.00125058
-0.00770898 0.00266706 1.5644e-05
-0.00756334 0.00268057 0.00120804
-0.00705823 0.0023945 0.00247991
-0.01 0 0
-0.01 0 0
-0.01 0 0
-0.01 0 0
-0.01 0 0
-0.01 0 0
-0.01 0 0
-0.01 0 0
-0.01 0 0
-0.01 0 0
-0.01 0 0
-0.01 0 0
-0.01 0 0
-0.01 0 0
-0.01 0 0
-0.01 0 0
-0.01 0 0
-0.01 0 0
-0.01 0 0
-0.01 0 0
-0.01 0 0
-0.01 0 0
-0.01 0 0
-0.01 0 0
-0.01 0 0
0 0 0
0 0 0
0 0 0
0 0 0
-0.00146346 -0.00136784 -0.00178777
-0.00235396 -0.00207041 -0.00210141
-0.00078878 -0.00157177 -0.00112298
-0.00183972 -0.00208638 -0.00135254
0 0 0
0 0 0
0 0 0
0 0 0
0 0 0
0 0 0
0 0 0
0 0 0
-0.000635176 -0.00164926 -0.000548437
-0.00163733 -0.00220013 -0.00093749
0 0 0
0 0 0
0 0 0
0 0 0
-0.000637248 -0.00171515 -0.000207706
-0.00160223 -0.0021935 -0.000608195
-0.00060648 -0.00164076 1.00219e-05
-0.00148317 -0.00226571 8.6935e-06
-0.000637544 -0.00170673 0.000226301
-0.00160461 -0.00218976 0.000619896
0 0 0
0 0 0
0 0 0
0 0 0
0 0 0
0 0 0
0 0 0
0 0 0
-0.000633921 -0.00163243 0.000551099
-0.00163827 -0.00218987 0.00094676
0 0 0
0 0 0
-0.00078695 -0.00156852 0.00112017
-0.00183676 -0.00208027 0.00135464
-0.0014622 -0.00136903 0.00178257
-0.00234955 -0.00207366 0.00209587
0 0 0
0 0 0
0 0 0
0 0 0
0 0 0
0 0 0
-0.00098041 -0.00066031 -0.00163614
-0.00200682 -0.00169107 -0.00215808
-0.000469863 -0.00078852 -0.00115117
-0.00135934 -0.00171467 -0.00132712
-0.000661673 -0.000482292 -0.00160812
-0.00155172 -0.000903555 -0.00228432
-0.000611371 -0.000227013 -0.00168385
-0.00155154 -0.000273566 -0.00226651
0 0 0
0 0 0
0 0 0
0 0 0
-0.000373971 -0.00084842 -0.000537998
-0.00121979 -0.00176413 -0.000925165
-0.000397948 -0.000563457 -0.000850592
-0.00124945 -0.00093989 -0.00180036
-0.00033616 -0.000351838 -0.000871822
-0.00112845 -0.000300064 -0.00181335
-0.00111069 -0.00134404 -0.000973007
-0.00305733 -0.00240884 -0.00141804
-0.00102593 -0.00137839 -0.000628625
-0.00296269 -0.00247449 -0.000466947
-0.00107386 -0.000974832 -0.00138311
-0.00307061 -0.00139403 -0.00242404
-0.00101471 -0.000657946 -0.00138703
-0.00297385 -0.000450954 -0.00247337
0 0 0
0 0 0
0 0 0
0 0 0
0 0 0
0 0 0
0 0 0
0 0 0
-0.000337044 -0.000871259 -0.000157553
-0.00115409 -0.00180347 -0.000616211
-0.000339768 -0.000887417 1.19058e-05
-0.00116342 -0.00181745 7.88836e-06
-0.000327018 -0.000872333 0.000188783
-0.00114327 -0.00181155 0.00064238
-0.000979824 -0.00139427 5.67519e-06
-0.002913 -0.00249572 1.43636e-05
-0.000985275 -0.00140432 0.000322042
-0.0029827 -0.00244181 0.000932148
-0.000896137 -0.000669952 -0.000661522
-0.00284459 -0.000469804 -0.00198377
0 0 0
0 0 0
0 0 0
0 0 0
-0.000359885 -0.000832083 0.00057074
-0.00119918 -0.00175051 0.000945304
-0.000392289 -0.000555597 0.000857434
-0.00124868 -0.000935598 0.00181192
-0.000341842 -0.000349467 0.00087295
-0.00113575 -0.000295774 0.00181272
-0.00104723 -0.00134722 0.00100182
-0.00304066 -0.00239094 0.00139545
-0.00106721 -0.000962783 0.00139539
-0.00307954 -0.00140443 0.0024331
-0.00101721 -0.00064157 0.00139499
-0.00296744 -0.00046907 0.00248125
0 0 0
0 0 0
0 0 0
0 0 0
-0.000465955 -0.000789065 0.00116028
-0.00134828 -0.00170845 0.00133132
-0.000980054 -0.000665369 0.00164414
-0.00200261 -0.00169707 0.00215835
-0.000664609 -0.000484128 0.0016122
-0.00155606 -0.000903876 0.00229301
-0.000614318 -0.000224319 0.00168565
-0.00155499 -0.000264557 0.00226547
0 0 0
0 0 0
0 0 0
0 0 0
-0.000681489 8.35456e-06 -0.00173413
-0.00166432 -2.06069e-05 -0.00218551
0 0 0
0 0 0
0 0 0
0 0 0
0 0 0
0 0 0
0 0 0
0 0 0
-0.000325477 -2.49259e-06 -0.000890358
-0.00110135 -3.0191e-06 -0.00185368
-0.000338415 0.000185177 -0.000876076
-0.00116709 0.000622987 -0.00180078
-0.000962925 -1.42228e-06 -0.00142998
-0.00293155 -6.68106e-07 -0.00248743
-0.000983075 0.000308204 -0.00142764
-0.00299561 0.000919464 -0.00243875
0 0 0
0 0 0
0 0 0
0 0 0
-0.000881903 -0.000662136 -1.63741e-06
-0.00285133 -0.00198141 -7.02618e-06
-0.000891118 -0.000632537 0.000314679
-0.00287089 -0.00196806 0.000934814
-0.000893732 1.0801e-06 -0.000655431
-0.00284882 5.34164e-07 -0.00197521
-0.000834582 -4.01845e-06 0.000657907
-0.00284437 -7.11746e-06 0.00199523
-0.000894331 0.000314226 -0.000638245
-0.00287394 0.000922107 -0.0019618
-0.000867117 0.000309098 0.000655146
-0.00287316 0.000970809 0.00198016
-0.000854852 0.0006597 1.32225e-06
-0.00284819 0.00199194 -1.5375e-05
-0.000876588 0.000642531 0.000306061
-0.00287972 0.00197192 0.000944493
-0.00264294 -2.23949e-06 -6.22563e-06
-0.00733912 6.99793e-06 3.10107e-06
0 0 0
0 0 0
0 0 0
0 0 0
0 0 0
0 0 0
0 0 0
0 0 0
-0.000322661 -5.04909e-06 0.000862278
-0.00109609 -8.57737e-07 0.00182624
-0.00033444 0.000166767 0.000852059
-0.00116491 0.000607021 0.00179706
-0.000932607 -0.00066295 0.00101834
-0.00292506 -0.00193737 0.0014258
-0.000960416 -1.25274e-05 0.00139773
-0.00290629 1.48096e-06 0.00250767
-0.00097774 0.000302544 0.00139768
-0.00298874 0.0009459 0.00245868
-0.000941279 0.000639427 0.00100659
-0.00292512 0.00193919 0.00142882
0 0 0
0 0 0
-0.000678593 1.28394e-05 0.00172544
-0.00165782 -1.50713e-05 0.00217119
0 0 0
0 0 0
0 0 0
0 0 0
0 0 0
0 0 0
-0.000654624 0.000345764 -0.00166781
-0.00160291 0.000278732 -0.00223275
-0.000591083 0.000477285 -0.00158729
-0.00149936 0.000905803 -0.00226116
-0.00095927 0.000634257 -0.00161503
-0.00200397 0.00169012 -0.00214618
-0.000465104 0.000767211 -0.00114836
-0.00135362 0.0017376 -0.00131973
0 0 0
0 0 0
0 0 0
0 0 0
-0.000364968 0.000569726 -0.000848101
-0.00119837 0.000949406 -0.00176981
-0.00036854 0.0008525 -0.000534901
-0.00121604 0.001777 -0.000922382
-0.00105805 0.000990116 -0.00135665
-0.0030629 0.00137473 -0.00239191
-0.00107714 0.0013679 -0.000969494
-0.00305602 0.00241062 -0.0014156
-0.00101132 0.00138787 -0.000630675
-0.00296303 0.00246818 -0.000472544
0 0 0
0 0 0
0 0 0
0 0 0
0 0 0
0 0 0
0 0 0
0 0 0
-0.000332745 0.00086968 -0.000159076
-0.0011496 0.00181236 -0.000617094
-0.000334868 0.000886557 5.35226e-06
-0.00116053 0.00182091 3.70192e-06
-0.000328412 0.000875513 0.000177678
-0.0011469 0.00182143 0.000636219
-0.000936493 0.00101309 -0.000660139
-0.00293252 0.0014071 -0.00193345
-0.000966006 0.00139963 2.4725e-06
-0.00291198 0.00249982 9.37669e-06
-0.000988567 0.00140697 0.00031505
-0.00299081 0.0024473 0.000938757
0 0 0
0 0 0
0 0 0
0 0 0
-0.000368396 0.000547091 0.000847833
-0.00120585 0.000937484 0.00178349
-0.000361318 0.000832094 0.000560685
-0.00120419 0.00175948 0.000939614
-0.00105782 0.000964658 0.00137457
-0.0030705 0.00141054 0.00241917
-0.00103465 0.00136143 0.000983785
-0.00304227 0.0023986 0.00139666
0 0 0
0 0 0
0 0 0
0 0 0
-0.000655536 0.000338746 0.00166535
-0.00160155 0.000274905 0.0022182
-0.000596609 0.000471638 0.00159225
-0.0015084 0.000902332 0.00227117
-0.000463444 0.000759743 0.00115067
-0.00134723 0.00172167 0.00132089
-0.000960755 0.00063242 0.00161717
-0.00200551 0.00169457 0.00214473
0 0 0
0 0 0
-0.00146588 0.00134849 -0.00178693
-0.00235793 0.00206605 -0.00209854
-0.000788838 0.00156282 -0.0011241
-0.00184442 0.00210536 -0.00135621
0 0 0
0 0 0
-0.000639011 0.00165135 -0.000544843
-0.00164674 0.00221173 -0.000932331
0 0 0
0 0 0
-0.000636911 0.0017152 -0.000209073
-0.00160311 0.00219973 -0.000605275
-0.000606857 0.00164132 4.96743e-06
-0.00148246 0.00226986 4.51359e-06
-0.00063949 0.00171066 0.000220439
-0.00160917 0.0021997 0.000614172
0 0 0
0 0 0
-0.000638157 0.00163732 0.000548692
-0.00164683 0.00219975 0.000939201
-0.00078883 0.00155782 0.00112049
-0.00184424 0.00209395 0.00135312
-0.00146744 0.00134808 0.00178214
-0.00236126 0.0020701 0.00209091
-0.00276141 -0.00241976 -0.00209931
-0.00262335 -0.0024986 -0.00164601
-0.0027475 -0.00205587 -0.00246667
-0.00258196 -0.00165767 -0.00250923
-0.00363313 -0.00262493 -0.00263016
-0.0043032 -0.0027358 -0.00272316
-0.00347691 -0.00226077 -0.00266572
-0.00416496 -0.00196191 -0.00282608
-0.00235287 -0.00260162 -0.000794161
-0.00233958 -0.00261238 -0.000400288
-0.00228378 -0.0020904 -0.0016673
-0.00230005 -0.00164046 -0.00213861
-0.00338936 -0.00271443 -0.00189297
-0.00424302 -0.00274567 -0.00238893
-0.00330065 -0.00280719 -0.00143099
-0.00415229 -0.00291432 -0.00152125
-0.0032373 -0.00286357 -0.000970437
-0.00411055 -0.00304327 -0.00053044
-0.00318914 -0.0023384 -0.00188068
-0.00409367 -0.00195424 -0.00246368
-0.00233636 -0.00261624 0.000407858
-0.00234789 -0.00260548 0.000795123
-0.00317675 -0.00288652 6.12482e-06
-0.00407679 -0.00305923 5.0005e-06
-0.0026203 -0.00249866 0.001641
-0.00275741 -0.00242251 0.00209119
-0.00226999 -0.00208989 0.00166246
-0.00229373 -0.00164365 0.00214814
-0.00321855 -0.00285689 0.000942117
-0.00408052 -0.00303472 0.000521415
-0.00331511 -0.00280783 0.00141145
-0.00418976 -0.00291404 0.00148706
-0.00338564 -0.00271526 0.0018761
-0.00423896 -0.00274695 0.00236331
-0.00317992 -0.00233887 0.00186351
-0.00409561 -0.00195766 0.00245918
-0.00274085 -0.00206639 0.00246435
-0.00257979 -0.00166697 0.00251825
-0.00362591 -0.00263937 0.00261141
-0.00429899 -0.00274871 0.00269828
-0.00347006 -0.00227553 0.0026584
-0.00416243 -0.00197495 0.00282576
-0.0023732 -0.000802644 -0.00261688
-0.00235579 -0.000389319 -0.0026314
-0.00327265 -0.00141952 -0.00282447
-0.00412425 -0.00151575 -0.0029037
-0.00237982 -0.00080032 0.00262534
-0.00235781 -0.00038352 0.00263323
-0.00327967 -0.00142971 0.00283582
-0.00413095 -0.0015283 0.00291438
-0.00235951 0.000389678 -0.00262666
-0.00238332 0.000797846 -0.00260686
-0.00320627 -0.000454681 -0.00289426
-0.00409752 -0.00100477 -0.00297004
-0.00320627 8.40382e-06 -0.00293516
-0.00411555 1.83694e-05 -0.00308799
-0.00319682 0.000478136 -0.00287971
-0.00410482 0.00101763 -0.00296413
-0.00235755 0.00039081 0.0026153
-0.00238301 0.000796464 0.00260664
-0.00320649 -0.00046066 0.00289961
-0.00410696 -0.00102139 0.00298149
-0.00319276 8.54519e-06 0.00292609
-0.00409293 6.35423e-06 0.0030817
-0.00319304 0.000485148 0.00288819
-0.00410392 0.00102925 0.00298222
-0.00257584 0.00166315 -0.00249691
-0.00274437 0.00205716 -0.00245399
-0.00228346 0.00165109 -0.00211989
-0.00227215 0.00211438 -0.0016588
-0.00331178 0.00139055 -0.0028179
-0.00419319 0.00146779 -0.00292187
-0.00228469 0.00165747 0.00212932
-0.00226749 0.0021073 0.00165129
-0.00258129 0.00167849 0.00250509
-0.00274837 0.00207522 0.00245192
-0.00331764 0.00141858 0.00283887
-0.00420048 0.00149875 0.00292489
-0.00275017 0.00242367 -0.00210234
-0.00261479 0.00251603 -0.00165504
-0.00346997 0.00224997 -0.00265931
-0.00418506 0.00193438 -0.0028188
-0.00361811 0.00261557 -0.00263069
-0.0042956 0.00271574 -0.0027239
-0.00235068 0.00260994 -0.000797646
-0.00233481 0.00261801 -0.000402894
-0.0031781 0.00234329 -0.00187348
-0.0041044 0.00193022 -0.00245798
-0.0033724 0.00271698 -0.00189556
-0.00422848 0.00272904 -0.00238589
-0.00329913 0.00282202 -0.00144046
-0.00415682 0.00291332 -0.00153332
-0.00323258 0.00286318 -0.000971758
-0.0041005 0.00303027 -0.000530843
-0.00233688 0.0026234 0.000404308
-0.00235194 0.00261715 0.000793034
-0.00317366 0.00288674 3.04222e-06
-0.00406789 0.00305873 3.37353e-06
-0.00261735 0.00251218 0.00163981
-0.00275642 0.00242937 0.00208686
-0.00317649 0.00235051 0.00186013
-0.00411049 0.00195628 0.00245891
-0.00322049 0.00286376 0.000944349
-0.00407779 0.0030261 0.000522284
-0.00330319 0.00281965 0.00141115
-0.00416798 0.00292318 0.00149543
-0.00337691 0.00272263 0.0018721
-0.00422977 0.00274734 0.00237139
-0.00347219 0.00228132 0.00265609
-0.0041835 0.00196585 0.00282691
-0.00362666 0.00264506 0.00261133
-0.00429734 0.00274274 0.0027097
-0.00499187 -0.00276927 -0.0024032
-0.00499121 -0.00281529 -0.00198806
-0.00498633 -0.00238615 -0.00276265
-0.00498013 -0.00198599 -0.00279838
-0.00568042 -0.00273326 -0.0027011
-0.00636614 -0.00262113 -0.00261595
-0.0057502 -0.00273438 -0.00236245
-0.00660864 -0.00269987 -0.00187592
-0.00500224 -0.00296278 -0.0010389
-0.00501826 -0.00304709 -0.000521189
-0.00500678 -0.00243903 -0.00198699
-0.00499817 -0.00196375 -0.00243577
-0.00501602 -0.00201369 -0.00202084
-0.0049981 -0.00100454 -0.00257255
-0.00582577 -0.0028618 -0.00150013
-0.00667169 -0.00278329 -0.00141186
-0.00596963 -0.00198869 -0.00199627
-0.00694151 -0.0009261 -0.00245219
-0.00500571 -0.003051 0.000508004
-0.00500411 -0.0029848 0.00102132
-0.00501127 -0.00214492 -0.00105488
-0.0049937 -0.00104959 -0.00213782
-0.00499111 -0.00212488 0.00104625
-0.00500178 -0.0010535 0.00213561
-0.00588504 -0.00296952 -0.000521542
-0.0067292 -0.00282353 -0.000962367
-0.00588802 -0.00305315 9.34315e-06
-0.00679672 -0.00292931 7.57099e-06
-0.00590985 -0.00301966 0.00051277
-0.00677714 -0.00287325 0.000954528
-0.00606667 -0.00210819 -0.00101734
-0.00708506 -0.00094912 -0.00199285
-0.00604922 -0.00208759 0.00100817
-0.00710375 -0.00094825 0.00198069
-0.00713697 -0.00197104 -1.16295e-06
-0.00914811 -0.000655205 1.07189e-05
-0.0071322 -0.00198041 0.000470129
-0.00912953 -0.000671805 0.000657948
-0.00500068 -0.00280943 0.00196397
-0.00499079 -0.00276433 0.00238033
-0.00500936 -0.0024386 0.00197116
-0.00499823 -0.00195778 0.00243467
-0.00501089 -0.00199018 0.00204472
-0.00501125 -0.00100456 0.00259725
-0.00585972 -0.00285309 0.00149586
-0.00671028 -0.00276781 0.00142347
-0.00596777 -0.00197885 0.00199409
-0.00694833 -0.000918195 0.00244964
-0.00498954 -0.00239329 0.00274821
-0.00498124 -0.00199125 0.00279301
-0.00575288 -0.00272988 0.00235302
-0.00662074 -0.0026966 0.00187716
-0.00568671 -0.00273173 0.00269285
-0.00637244 -0.0026179 0.00261287
-0.00499205 -0.00105048 -0.00291957
-0.00499507 -0.000539494 -0.00301849
-0.00581733 -0.00195873 -0.0028051
-0.00651978 -0.00225303 -0.00264962
-0.0058963 -0.00194496 -0.00242623
-0.00679349 -0.00233257 -0.00185942
-0.00584492 -0.00150723 -0.00286128
-0.00667133 -0.00141727 -0.00277527
-0.00585992 -0.00102516 -0.00291743
-0.0067887 -0.000493173 -0.00289896
-0.00499599 -0.00105306 0.00294045
-0.004995 -0.00054187 0.00303466
-0.00589385 -0.00194165 0.00242307
-0.00679626 -0.00232638 0.00185904
-0.00581935 -0.001959 0.00280305
-0.00652179 -0.00225181 0.00264714
-0.00584729 -0.00150828 0.00286706
-0.00667306 -0.0014194 0.00277562
-0.00586412 -0.00102587 0.00292178
-0.00680404 -0.000486747 0.00289127
-0.00500315 0.000505358 -0.00308782
-0.00501662 0.00101967 -0.00298352
-0.00497568 0.0010409 -0.00214011
-0.00499474 0.00213611 -0.00106122
-0.00590823 1.34745e-05 -0.00308583
-0.00682946 1.07787e-05 -0.00295116
-0.00604096 0.00100984 -0.00210266
-0.00710339 0.00199175 -0.000958275
-0.00714238 -1.26964e-06 -0.00198404
-0.00914493 6.09059e-06 -0.000654908
-0.00713267 0.000473402 -0.00198531
-0.00913026 0.000662336 -0.000667828
-0.00499706 0.00049443 0.00305709
-0.0050234 0.001009 0.00294919
-0.00500842 0.00105352 0.00213073
-0.0049954 0.00213063 0.00104095
-0.00498809 0.0010046 0.00258969
-0.00497939 0.00201463 0.00201395
-0.00590328 5.50536e-06 0.00307306
-0.00683361 1.30982e-05 0.00294139
-0.00607219 0.00101831 0.00209034
-0.00709564 0.00197766 0.00093911
-0.00599087 0.000969017 0.00257149
-0.00694144 0.00189949 0.0018912
-0.00715875 -1.40936e-06 0.00196793
-0.00912662 -4.23468e-06 0.000652188
-0.00707597 8.38222e-06 0.00248245
-0.00904515 -1.06383e-05 0.00142322
-0.00716896 0.000467216 0.00198721
-0.00911634 0.000643765 0.000656603
-0.00704268 0.000474612 0.00246117
-0.00901181 0.000620224 0.00140977
-0.00500394 0.00196955 -0.00279336
-0.00498868 0.00236559 -0.00275738
-0.00500231 0.00197196 -0.00243192
-0.00498771 0.00243282 -0.00196895
-0.00499342 0.00204558 -0.00199316
-0.0049978 0.00260336 -0.00101016
-0.00587115 0.00102671 -0.00296123
-0.00678364 0.000486317 -0.00289447
-0.00585725 0.00149166 -0.00290219
-0.00670264 0.00140425 -0.00281425
-0.00581886 0.00192979 -0.00279546
-0.00651501 0.00225354 -0.00265236
-0.00589451 0.00193567 -0.00243932
-0.00677525 0.00234934 -0.00186541
-0.00595357 0.00199152 -0.00199986
-0.00694783 0.00245796 -0.000937895
-0.00702899 0.00142916 -0.00193906
-0.00907345 0.00102192 -0.000643945
-0.00500554 0.00196356 0.00242794
-0.004993 0.00243663 0.00197944
-0.00500614 0.00195647 0.00276872
-0.00498838 0.00236854 0.00274782
-0.00589436 0.00102995 0.00295163
-0.00680236 0.000483234 0.00289343
-0.00588177 0.00152001 0.00287927
-0.00672299 0.00143408 0.00280033
-0.00588287 0.00193364 0.00244227
-0.0067826 0.00235462 0.00186701
-0.0058296 0.00194631 0.00280179
-0.00651231 0.00226618 0.00265176
-0.00690778 0.00141482 0.0023921
-0.00894996 0.000951177 0.00138552
-0.00498433 0.00274445 -0.00240434
-0.00498429 0.00279594 -0.00199291
-0.00568537 0.00271497 -0.00271796
-0.00636773 0.00262084 -0.00262438
-0.00575005 0.00272365 -0.00237611
-0.00660763 0.00270478 -0.00187644
-0.00501249 0.00294814 -0.00105297
-0.00500504 0.00304183 -0.000528629
-0.00585491 0.00286903 -0.00152064
-0.00670986 0.00278109 -0.00143688
-0.00500569 0.00303302 0.000509883
-0.0050119 0.00296408 0.00102855
-0.00591238 0.0029931 -0.000527168
-0.00678985 0.00284362 -0.000957839
-0.00590347 0.00305959 5.1165e-06
-0.00682126 0.00291648 9.20126e-06
-0.00590627 0.00297405 0.000524886
-0.00678624 0.00283146 0.000957066
-0.00714803 0.00196978 -4.81409e-06
-0.00911883 0.00066201 -2.24385e-06
-0.00706919 0.00247509 -1.44413e-06
-0.00902646 0.00143257 -2.92029e-06
-0.00499437 0.00280801 0.00198461
-0.00498917 0.00276044 0.00240133
-0.00587471 0.00285868 0.00151165
-0.00671794 0.00278322 0.00142617
-0.00575396 0.00273348 0.0023711
-0.00661366 0.00271938 0.0018825
-0.00568835 0.00272574 0.002711
-0.00636283 0.00263077 0.00261594
-0.00723757 -0.00243263 -0.00209666
-0.00736709 -0.00253412 -0.00164267
-0.00724201 -0.00206803 -0.00245891
-0.0074007 -0.00167257 -0.0025178
-0.00762851 -0.00207632 -0.00209885
-0.00852455 -0.00135459 -0.00178713
-0.00797927 -0.00170029 -0.00215279
-0.00902714 -0.000629304 -0.00161584
-0.00763042 -0.00269392 -0.0007975
-0.00767366 -0.00270599 -0.000394232
-0.00769072 -0.00213536 -0.00167022
-0.00768552 -0.00166383 -0.00215227
-0.00791604 -0.00169431 -0.00171379
-0.0079006 -0.000772607 -0.0022403
-0.00813689 -0.0020965 -0.00135393
-0.0092042 -0.00156306 -0.00112244
-0.00832334 -0.00221294 -0.000933719
-0.00935139 -0.00162709 -0.000545395
-0.00835346 -0.0022363 -0.00061259
-0.00934971 -0.00171081 -0.000215431
-0.0086205 -0.00172542 -0.00131829
-0.00952572 -0.000752211 -0.00114206
-0.00877059 -0.00176998 -0.000922185
-0.00963415 -0.000796558 -0.000543925
-0.00884967 -0.00184532 -0.000626802
-0.00967259 -0.000852205 -0.000172821
-0.00893659 -0.00135535 -0.000974126