# vtk DataFile Version 3.0
vtk output at time 0.6
ASCII
DATASET UNSTRUCTURED_GRID
POINTS 1524 float
0 0 0 0 0 0.05 0 0 0.1 
0 0 0.15 0 0 0.2 0 0.05 0 
0 0.05 0.05 0 0.05 0.1 0 0.05 0.15 
0 0.05 0.2 0 0.1 0 0 0.1 0.05 
0 0.1 0.1 0 0.1 0.15 0 0.1 0.2 
0 0.15 0 0 0.15 0.05 0 0.15 0.1 
0 0.15 0.15 0 0.15 0.2 0 0.2 0 
0 0.2 0.05 0 0.2 0.1 0 0.2 0.15 
0 0.2 0.2 0.0407037 -0.00646171 -0.00685078 0.0423647 -0.00698925 0.046518 
0.0428411 -0.00700296 0.100015 0.0423917 -0.00699887 0.153482 0.0407313 -0.00648894 0.206828 
0.0423557 0.0465619 -0.00702485 0.0423408 0.0465537 0.207051 0.0429088 0.100011 -0.00722737 
0.0429318 0.100027 0.207188 0.0423656 0.153421 -0.00697609 0.042339 0.153443 0.20701 
0.0407484 0.206451 -0.00682702 0.0423655 0.207018 0.0465064 0.0428486 0.20702 0.100003 
0.0423823 0.207026 0.15347 0.0407387 0.206507 0.20679 0.0850465 -0.00746765 -0.00747467 
0.0850133 -0.00775283 0.0457956 0.0849616 -0.00837215 0.0999904 0.0848751 -0.00783166 0.154153 
0.0850472 -0.007483 0.207424 0.0850965 0.0457664 -0.00765503 0.0850908 0.0457735 0.207674 
0.0849615 0.100028 -0.00847393 0.08505 0.0999676 0.208412 0.0847854 0.154203 -0.00772782 
0.0847944 0.154124 0.207659 0.0850263 0.207415 -0.00747089 0.0850074 0.207701 0.0457669 
0.085061 0.208402 0.0999948 0.0849506 0.207823 0.154188 0.0850504 0.207433 0.207484 
0.129259 -0.00647639 -0.00682658 0.127771 -0.00716626 0.0465473 0.127126 -0.00727741 0.100007 
0.127636 -0.0070974 0.153508 0.129246 -0.00646578 0.206822 0.127844 0.0465529 -0.00716387 
0.127811 0.0465681 0.207099 0.126985 0.100044 -0.0073342 0.126972 0.100065 0.207266 
0.127694 0.153469 -0.00701929 0.127644 0.153458 0.20699 0.129298 0.206488 -0.00682146 
0.127788 0.20714 0.0464923 0.1271 0.20716 0.100032 0.127659 0.207218 0.153402 
0.129302 0.206508 0.206792 0.17 0 0 0.17 0 0.05 
0.17 0 0.1 0.17 0 0.15 0.17 0 0.2 
0.17 0.05 0 0.17 0.05 0.05 0.17 0.05 0.1 
0.17 0.05 0.15 0.17 0.05 0.2 0.17 0.1 0 
0.17 0.1 0.05 0.17 0.1 0.1 0.17 0.1 0.15 
0.17 0.1 0.2 0.17 0.15 0 0.17 0.15 0.05 
0.17 0.15 0.1 0.17 0.15 0.15 0.17 0.15 0.2 
0.17 0.2 0 0.17 0.2 0.05 0.17 0.2 0.1 
0.17 0.2 0.15 0.17 0.2 0.2 0 0 0.0166667 
0 0 0.0333333 0 0.0166667 0 0 0.0333333 0 
0.0111506 -0.00379603 -0.00490619 0.0254601 -0.00568151 -0.00573939 0.0136197 -0.00447759 0.0133978 
0.0272737 -0.00569919 0.0295043 0 0 0.0666667 0 0 0.0833333 
0 0.0166667 0.0333333 0 0.0333333 0.0166667 0 0.0166667 0.05 
0 0.0333333 0.05 0 0.0166667 0.0666667 0 0.0333333 0.0833333 
0.0142837 -0.00459881 0.0484039 0.027974 -0.00597344 0.0473289 0 0 0.116667 
0 0 0.133333 0 0.0166667 0.1 0 0.0333333 0.1 
0.0143364 -0.00469908 0.0827671 0.0281758 -0.00590865 0.0649304 0.0145982 -0.00446766 0.100035 
0.0286139 -0.00608863 0.100028 0.0143468 -0.00466784 0.117298 0.0281872 -0.00588319 0.135108 
0 0 0.166667 0 0 0.183333 0 0.0166667 0.133333 
0 0.0333333 0.116667 0 0.0166667 0.15 0 0.0333333 0.15 
0 0.0166667 0.166667 0 0.0333333 0.183333 0.0143051 -0.00454245 0.151601 
0.0279892 -0.00593437 0.152697 0 0.0166667 0.2 0 0.0333333 0.2 
0.0136324 -0.00446604 0.186589 0.0272944 -0.00567735 0.1705 0.0111599 -0.00379964 0.204887 
0.0254777 -0.00568821 0.205724 0 0.05 0.0166667 0 0.05 0.0333333 
0 0.0666667 0 0 0.0833333 0 0 0.0666667 0.0166667 
0 0.0833333 0.0333333 0.013129 0.0313965 -0.00451833 0.0266288 0.0119521 -0.00590966 
0.0148836 0.031036 0.0133625 0.0287986 0.0119005 0.0295189 0.014246 0.0485847 -0.00447463 
0.0282162 0.0474275 -0.00622366 0.0144302 0.0660115 -0.00465009 0.028372 0.0825354 -0.00609595 
0 0.05 0.0666667 0 0.05 0.0833333 0 0.0666667 0.05 
0 0.0833333 0.05 0.0153842 0.0309289 0.048436 0.0293546 0.0117957 0.0473324 
0.0152738 0.0483833 0.0309158 0.0292145 0.0473245 0.0117061 0.0155377 0.0656697 0.0308784 
0.0297464 0.0824782 0.0117059 0.0297995 0.0295813 0.0472334 0.0572683 0.0101039 0.0460453 
0.0301334 0.0295026 0.0648755 0.0576504 0.00997428 0.0820094 0.0298935 0.0472398 0.0294649 
0.0572604 0.0461099 0.0100576 0.0301823 0.0648048 0.0294649 0.0576421 0.082053 0.00997805 
0 0.05 0.116667 0 0.05 0.133333 0 0.0666667 0.0833333 
0 0.0833333 0.0666667 0 0.0666667 0.1 0 0.0833333 0.1 
0 0.0666667 0.116667 0 0.0833333 0.133333 0.0155525 0.0309089 0.0828847 
0.0296154 0.0117186 0.064901 0.0155638 0.0308722 0.100036 0.0296389 0.0117404 0.100024 
0.0155868 0.0309188 0.117205 0.0296643 0.0117115 0.135169 0.0303463 0.0294971 0.10001 
0.0578286 0.00993037 0.100035 0.0303108 0.029458 0.117585 0.0575764 0.0100417 0.135942 
0.0306451 0.0647887 0.0648077 0.0580911 0.0820216 0.0279369 0 0.05 0.166667 
0 0.05 0.183333 0 0.0666667 0.15 0 0.0833333 0.15 
0.0154302 0.0309764 0.151654 0.0294351 0.0118329 0.152721 0.0152964 0.0484 0.169105 
0.0292191 0.047332 0.188324 0.0155149 0.0656671 0.16913 0.0297149 0.0824864 0.188294 
0.0300294 0.0295585 0.152846 0.0573424 0.0101539 0.153894 0.0299171 0.0472637 0.170564 
0.057231 0.046085 0.189962 0.0301445 0.0648398 0.170548 0.0576376 0.0820073 0.190042 
0 0.0666667 0.183333 0 0.0833333 0.166667 0 0.0666667 0.2 
0 0.0833333 0.2 0.0148936 0.0310345 0.186664 0.0288437 0.0119181 0.170493 
0.0131286 0.0313813 0.20454 0.0266454 0.0119374 0.205911 0.0142376 0.0485773 0.204486 
0.028205 0.047424 0.206245 0.0144171 0.066015 0.20466 0.0283576 0.0825572 0.206098 
0 0.1 0.0166667 0 0.1 0.0333333 0 0.116667 0 
0 0.133333 0 0.0142122 0.10004 -0.00475895 0.0281107 0.0999435 -0.00583239 
0 0.1 0.0666667 0 0.1 0.0833333 0 0.116667 0.0333333 
0 0.133333 0.0166667 0 0.116667 0.05 0 0.133333 0.05 
0 0.116667 0.0666667 0 0.133333 0.0833333 0.0155884 0.100004 0.0308727 
0.0298291 0.0999933 0.0116343 0.0155496 0.117208 0.0308893 0.0295826 0.135113 0.0117227 
0.0304028 0.1 0.0293858 0.0578025 0.0999931 0.00995009 0.0303145 0.11755 0.0293869 
0.0575425 0.135901 0.0100562 0 0.1 0.116667 0 0.1 0.133333 
0 0.116667 0.1 0 0.133333 0.1 0.030744 0.0648378 0.0999894 
0.0580815 0.0279559 0.0999799 0.0306771 0.064917 0.11755 0.0579765 0.0279656 0.135942 
0.0307082 0.100003 0.0648544 0.0581126 0.100002 0.0279731 0.0309 0.0999854 0.135155 
0.0581046 0.0999814 0.172082 0.0306732 0.117551 0.064892 0.0579781 0.135899 0.0279861 
0.0307548 0.117529 0.135146 0.0579621 0.136037 0.172057 0.0308339 0.135155 0.0999958 
0.05809 0.172067 0.0999601 0.0307231 0.135109 0.117518 0.0579567 0.172052 0.135963 
0.0589191 0.0999935 0.0999815 0.111132 0.100017 0.100006 0 0.1 0.166667 
0 0.1 0.183333 0 0.116667 0.133333 0 0.133333 0.116667 
0 0.116667 0.15 0 0.133333 0.15 0 0.116667 0.166667 
0 0.133333 0.183333 0.0156022 0.099995 0.169049 0.0298447 0.100001 0.188291 
0.0155681 0.117154 0.169042 0.0295905 0.135068 0.18826 0.0304765 0.064802 0.152856 
0.057755 0.0280211 0.153952 0.0304087 0.0999659 0.170521 0.0578465 0.100003 0.190099 
0.0303316 0.117531 0.170523 0.0575544 0.135977 0.189993 0.0304565 0.135137 0.152813 
0.0577647 0.171986 0.15395 0 0.116667 0.2 0 0.133333 0.2 
0.0142244 0.100053 0.204739 0.0281312 0.0999592 0.205798 0 0.15 0.0166667 
0 0.15 0.0333333 0 0.166667 0 0 0.183333 0 
0 0.166667 0.0166667 0 0.183333 0.0333333 0.0142857 0.134354 -0.00461313 
0.0282413 0.117474 -0.00599952 0.0145073 0.151407 -0.00442296 0.0284145 0.152587 -0.00616915 
0.0132307 0.168518 -0.00447059 0.0266565 0.188053 -0.0058703 0.014905 0.16889 0.0133633 
0.0288245 0.188155 0.029547 0 0.15 0.0666667 0 0.15 0.0833333 
0 0.166667 0.05 0 0.183333 0.05 0.0154092 0.151644 0.0309237 
0.0294215 0.152706 0.0117711 0.0154015 0.169074 0.048446 0.0293749 0.188232 0.0473461 
0.0300013 0.152803 0.0295226 0.0572876 0.153832 0.0101525 0.0299149 0.170484 0.0472408 
0.0572932 0.189898 0.0460587 0.0301853 0.170526 0.0648669 0.0576512 0.190006 0.0819973 
0 0.15 0.116667 0 0.15 0.133333 0 0.166667 0.0833333 
0 0.183333 0.0666667 0 0.166667 0.1 0 0.183333 0.1 
0 0.166667 0.116667 0 0.183333 0.133333 0.0155662 0.169086 0.0828783 
0.0296347 0.188305 0.0648972 0.0155797 0.169129 0.100015 0.0296479 0.188274 0.10001 
0.0155817 0.169091 0.11717 0.0296505 0.188319 0.135149 0.0304749 0.152835 0.0648007 
0.0577461 0.153894 0.0280349 0.030388 0.170523 0.100002 0.057825 0.190076 0.100023 
0.0302996 0.170552 0.117562 0.0575533 0.189977 0.135955 0 0.15 0.166667 
0 0.15 0.183333 0 0.166667 0.15 0 0.183333 0.15 
0.0153994 0.151582 0.169078 0.0293945 0.152672 0.188257 0.0154258 0.169021 0.151622 
0.0294166 0.188192 0.152698 0.0299745 0.15274 0.170507 0.0572521 0.153933 0.189908 
0.0300717 0.170485 0.152794 0.0573408 0.189868 0.15389 0 0.166667 0.183333 
0 0.183333 0.166667 0 0.166667 0.2 0 0.183333 0.2 
0.0142862 0.134329 0.204606 0.0282479 0.117465 0.205959 0.0144901 0.151386 0.204437 
0.0283874 0.152573 0.206189 0.0149113 0.168869 0.186646 0.0288487 0.188115 0.170458 
0.0132278 0.16851 0.204478 0.0266556 0.188058 0.205868 0 0.2 0.0166667 
0 0.2 0.0333333 0.0111536 0.203727 -0.00490249 0.0254539 0.205677 -0.00571361 
0.013632 0.204434 0.0133951 0.0272598 0.205739 0.0295099 0 0.2 0.0666667 
0 0.2 0.0833333 0.0142735 0.204595 0.0484086 0.0279477 0.205992 0.0473505 
0 0.2 0.116667 0 0.2 0.133333 0.0143379 0.204698 0.0827577 
0.0281766 0.205922 0.0649382 0.0145941 0.20447 0.100017 0.028614 0.206103 0.100013 
0.0143368 0.20468 0.117279 0.028167 0.205913 0.135087 0 0.2 0.166667 
0 0.2 0.183333 0.0142851 0.204554 0.1516 0.0279519 0.205959 0.152668 
0.0136363 0.204418 0.186597 0.0272643 0.205708 0.170485 0.0111512 0.203721 0.204892 
0.0254445 0.20568 0.205698 0.041236 -0.00659405 0.010876 0.0417282 -0.00679113 0.0287378 
0.0412684 0.0110172 -0.00674307 0.0418454 0.02874 -0.00682511 0.0554369 -0.00713357 -0.00716614 
0.070266 -0.00743331 -0.00740255 0.0559153 0.0104757 -0.00724932 0.0707127 0.0279428 -0.00765097 
0.0427316 -0.00704063 0.064445 0.0427762 -0.00703239 0.0822213 0.0427437 0.0109072 0.0286764 
0.0427077 0.0287571 0.0107909 0.0562241 -0.00736641 0.02811 0.0704508 -0.00746022 0.0101437 
0.0565102 -0.00758925 0.0460246 0.0707362 -0.0078658 0.0458106 0.0567653 -0.00771248 0.0639697 
0.0709306 -0.00816489 0.0818688 0.0568191 0.0102735 0.0281288 0.0709137 0.0279546 0.00996368 
[...]
POINT_DATA 1524
VECTORS displacement float
0 0 0
0 0 0
0 0 0
0 0 0
0 0 0
0 0 0
0 0 0
0 0 0
0 0 0
0 0 0
0 0 0
0 0 0
0 0 0
0 0 0
0 0 0
0 0 0
0 0 0
0 0 0
0 0 0
0 0 0
0 0 0
0 0 0
0 0 0
0 0 0
0 0 0
-0.00929633 -0.00646171 -0.00685078
-0.00763525 -0.00698925 -0.00348197
-0.00715887 -0.00700296 1.52234e-05
-0.00760828 -0.00699887 0.00348166
-0.00926869 -0.00648894 0.00682757
-0.00764429 -0.00343806 -0.00702485
-0.00765923 -0.00344634 0.00705139
-0.00709118 1.1454e-05 -0.00722737
-0.00706821 2.68758e-05 0.00718798
-0.00763438 0.00342052 -0.00697609
-0.00766095 0.0034428 0.00700996
-0.00925162 0.00645127 -0.00682702
-0.00763449 0.00701818 -0.00349357
-0.00715142 0.00702002 3.23157e-06
-0.00761769 0.00702634 0.00347021
-0.00926127 0.00650672 0.00678969
-0.0149535 -0.00746765 -0.00747467
-0.0149867 -0.00775283 -0.00420437
-0.0150384 -0.00837215 -9.64748e-06
-0.0151249 -0.00783166 0.00415283
-0.0149528 -0.007483 0.0074236
-0.0149035 -0.00423358 -0.00765503
-0.0149092 -0.00422647 0.00767437
-0.0150385 2.82179e-05 -0.00847393
-0.01495 -3.24228e-05 0.00841209
-0.0152146 0.00420346 -0.00772782
-0.0152056 0.00412373 0.00765925
-0.0149737 0.00741519 -0.00747089
-0.0149926 0.00770122 -0.00423311
-0.014939 0.00840166 -5.17378e-06
-0.0150494 0.007823 0.00418797
-0.0149496 0.00743343 0.00748362
-0.0207414 -0.00647639 -0.00682658
-0.0222289 -0.00716626 -0.00345268
-0.0228741 -0.00727741 7.45506e-06
-0.0223642 -0.0070974 0.00350833
-0.0207542 -0.00646578 0.00682187
-0.0221559 -0.00344708 -0.00716387
-0.0221891 -0.00343193 0.00709892
-0.0230146 4.39735e-05 -0.0073342
-0.0230285 6.49231e-05 0.00726593
-0.0223057 0.00346896 -0.00701929
-0.0223555 0.00345772 0.00698996
-0.020702 0.00648764 -0.00682146
-0.0222123 0.00713964 -0.00350774
-0.0228995 0.00715969 3.17196e-05
-0.0223409 0.00721803 0.00340183
-0.020698 0.00650781 0.00679219
-0.03 0 0
-0.03 0 0
-0.03 0 0
-0.03 0 0
-0.03 0 0
-0.03 0 0
-0.03 0 0
-0.03 0 0
-0.03 0 0
-0.03 0 0
-0.03 0 0
-0.03 0 0
-0.03 0 0
-0.03 0 0
-0.03 0 0
-0.03 0 0
-0.03 0 0
-0.03 0 0
-0.03 0 0
-0.03 0 0
-0.03 0 0
-0.03 0 0
-0.03 0 0
-0.03 0 0
-0.03 0 0
0 0 0
0 0 0
0 0 0
0 0 0
-0.00551603 -0.00379603 -0.00490619
-0.00787324 -0.00568151 -0.00573939
-0.00304695 -0.00447759 -0.00326883
-0.00605961 -0.00569919 -0.00382907
0 0 0
0 0 0
0 0 0
0 0 0
0 0 0
0 0 0
0 0 0
0 0 0
-0.00238297 -0.00459881 -0.00159611
-0.00535934 -0.00597344 -0.00267113
0 0 0
0 0 0
0 0 0
0 0 0
-0.00233027 -0.00469908 -0.000566237
-0.00515754 -0.00590865 -0.00173629
-0.00206849 -0.00446766 3.52571e-05
-0.00471938 -0.00608863 2.84323e-05
-0.00231984 -0.00466784 0.000631234
-0.00514613 -0.00588319 0.00177475
0 0 0
0 0 0
0 0 0
0 0 0
0 0 0
0 0 0
0 0 0
0 0 0
-0.00236153 -0.00454245 0.00160115
-0.00534416 -0.00593437 0.00269686
0 0 0
0 0 0
-0.00303431 -0.00446604 0.00325585
-0.00603897 -0.00567735 0.00383327
-0.0055068 -0.00379964 0.00488704
-0.00785565 -0.00568821 0.00572447
0 0 0
0 0 0
0 0 0
0 0 0
0 0 0
0 0 0
-0.00353771 -0.00193683 -0.00451833
-0.00670455 -0.00471461 -0.00590966
-0.0017831 -0.00229736 -0.00330418
-0.00453475 -0.0047662 -0.0038144
-0.00242065 -0.00141535 -0.00447463
-0.00511711 -0.00257251 -0.00622366
-0.00223648 -0.000655175 -0.00465009
-0.00496136 -0.000797966 -0.00609595
0 0 0
0 0 0
0 0 0
0 0 0
-0.0012825 -0.00240441 -0.00156396
-0.00397877 -0.00487099 -0.00266761
-0.00139286 -0.00161674 -0.00241756
-0.00411883 -0.00267546 -0.0049606
-0.00112896 -0.000996933 -0.00245496
-0.00358696 -0.000855111 -0.00496078
-0.00353383 -0.00375203 -0.00276655
-0.00939838 -0.00656277 -0.00395472
-0.00319993 -0.00383077 -0.00179113
-0.0090163 -0.00669239 -0.00132389
-0.00343985 -0.00276024 -0.00386847
-0.00940627 -0.00389007 -0.00660904
-0.00315107 -0.00186183 -0.00386839
-0.00902458 -0.00128038 -0.00668861
0 0 0
0 0 0
0 0 0
0 0 0
0 0 0
0 0 0
0 0 0
0 0 0
-0.00111413 -0.00242446 -0.000448683
-0.00371789 -0.00494808 -0.00176565
-0.00110285 -0.00246111 3.61214e-05
-0.00369442 -0.00492627 2.35161e-05
-0.0010799 -0.00241453 0.000538251
-0.00366904 -0.00495512 0.00183567
-0.00298708 -0.00383627 1.03685e-05
-0.00883808 -0.0067363 3.45886e-05
-0.00302251 -0.00387529 0.000918459
-0.0090903 -0.00662494 0.00260844
-0.00268826 -0.00187798 -0.00185895
-0.0085756 -0.00131174 -0.00539639
0 0 0
0 0 0
0 0 0
0 0 0
-0.00123647 -0.0023569 0.00165402
-0.00389823 -0.0048338 0.00272105
-0.00137027 -0.00160002 0.00243808
-0.00411428 -0.00266795 0.00499052
-0.00115179 -0.000999531 0.00246303
-0.0036184 -0.000846894 0.00496107
-0.00330398 -0.00377488 0.00284627
-0.00932431 -0.00651278 0.00389416
-0.00341623 -0.00273627 0.00389742
-0.00943567 -0.00391502 0.00662824
-0.0031888 -0.00182687 0.00388122
-0.00902903 -0.00132608 0.00670847
0 0 0
0 0 0
0 0 0
0 0 0
-0.00177311 -0.00229879 0.00333102
-0.00448964 -0.00474857 0.00382639
-0.00353808 -0.00195202 0.00454015
-0.00668794 -0.00472928 0.00591086
-0.00242909 -0.00142273 0.0044864
-0.00512832 -0.00257605 0.00624534
-0.0022496 -0.000651653 0.00466042
-0.00497568 -0.000776115 0.00609775
0 0 0
0 0 0
0 0 0
0 0 0
-0.00245446 4.04878e-05 -0.00475895
-0.0052226 -5.64571e-05 -0.00583239
0 0 0
0 0 0
0 0 0
0 0 0
0 0 0
0 0 0
0 0 0
0 0 0
-0.00107823 4.06329e-06 -0.00246063
-0.00350423 -6.75359e-06 -0.00503238
-0.00111711 0.00054143 -0.00244402
-0.00375069 0.00177989 -0.00494399
-0.00293053 4.94364e-07 -0.00394754
-0.00886413 -6.88446e-06 -0.00671658
-0.00301882 0.000883361 -0.00394643
-0.00912417 0.00256789 -0.00661048
0 0 0
0 0 0
0 0 0
0 0 0
-0.00258938 -0.00182891 -1.0568e-05
-0.00858513 -0.0053774 -2.01437e-05
-0.00265621 -0.00174966 0.00088367
-0.00869021 -0.00536774 0.00260906
-0.00262512 2.66651e-06 -0.00181224
-0.00855405 2.49105e-06 -0.00536028
-0.00243329 -1.46105e-05 0.00182214
-0.00856209 -1.85881e-05 0.00541518
-0.00266014 0.000883936 -0.00177468
-0.00868855 0.00256603 -0.00534727
-0.00257852 0.000861944 0.00181261
-0.0087046 0.00270337 0.00539042
-0.00249945 0.00182168 -4.16922e-06
-0.00857664 0.00540037 -3.99163e-05
-0.00261024 0.00177618 0.00085129
-0.00871 0.00538535 0.00262959
-0.00774759 -6.52678e-06 -1.84844e-05
-0.0222017 1.67295e-05 6.12107e-06
0 0 0
0 0 0
0 0 0
0 0 0
0 0 0
0 0 0
0 0 0
0 0 0
-0.00106449 -4.97186e-06 0.00238198
-0.00348867 6.65737e-07 0.00495808
-0.00109862 0.000487305 0.00237548
-0.00374278 0.00173461 0.00492627
-0.00285686 -0.00186464 0.00285572
-0.0089117 -0.00531219 0.00395188
-0.00292465 -3.41053e-05 0.00385437
-0.00882021 3.32926e-06 0.00676581
-0.00300169 0.000864247 0.00385616
-0.00911227 0.00264337 0.00665955
-0.00287684 0.00180382 0.00281341
-0.00890202 0.00531974 0.00395047
0 0 0
0 0 0
-0.0024423 5.29646e-05 0.00473936
-0.00520217 -4.08036e-05 0.0057981
0 0 0
0 0 0
0 0 0
0 0 0
0 0 0
0 0 0
-0.00238093 0.00102042 -0.00461313
-0.00509206 0.000807201 -0.00599952
-0.00215935 0.00140657 -0.00442296
-0.00491881 0.00258726 -0.00616915
-0.00343601 0.0018518 -0.00447059
-0.00667683 0.00472013 -0.0058703
-0.00176164 0.00222373 -0.00330342
-0.00450888 0.00482132 -0.00378638
0 0 0
0 0 0
0 0 0
0 0 0
-0.00125746 0.00164402 -0.00240961
-0.00391181 0.00270622 -0.00489561
-0.00126514 0.00240698 -0.001554
-0.00395846 0.00489853 -0.0026539
-0.003332 0.00280327 -0.00381074
-0.00937906 0.003832 -0.00651421
-0.00341843 0.00381752 -0.00275924
-0.00937345 0.00656471 -0.00394131
-0.00314805 0.00385935 -0.00179977
-0.00901544 0.00667253 -0.00133607
0 0 0
0 0 0
0 0 0
0 0 0
0 0 0
0 0 0
0 0 0
0 0 0
-0.00110051 0.0024195 -0.000455009
-0.00369867 0.00497119 -0.00176945
-0.00108694 0.00246265 1.50929e-05
-0.00368541 0.00494056 9.58521e-06
-0.00108497 0.00242419 0.000503361
-0.00368284 0.0049859 0.00181525
-0.00285838 0.0028352 -0.00186592
-0.00892059 0.00389383 -0.00529845
-0.0029453 0.00385594 2.0981e-06
-0.00884168 0.00674286 2.29465e-05
-0.00303371 0.00388514 0.000895542
-0.00911333 0.00664354 0.0026216
0 0 0
0 0 0
0 0 0
0 0 0
-0.00126729 0.00158158 0.00241146
-0.00393887 0.00267231 0.00492385
-0.00124088 0.00235386 0.00162189
-0.00391669 0.00485908 0.00269785
-0.0033588 0.00274015 0.00384012
-0.00941461 0.00393259 0.00657467
-0.00326163 0.00381807 0.0027944
-0.00932585 0.00653493 0.00388989
0 0 0
0 0 0
0 0 0
0 0 0
-0.00238051 0.0009958 0.00460615
-0.00508546 0.000798602 0.00595885
-0.0021766 0.00138641 0.00443736
-0.00494593 0.00257341 0.00618899
-0.00175532 0.00220184 0.00331244
-0.00448463 0.00478201 0.00379133
-0.00343884 0.00184292 0.00447816
-0.0066777 0.00472494 0.00586813
0 0 0
0 0 0
-0.00551303 0.0037274 -0.00490249
-0.00787941 0.00567707 -0.00571361
-0.00303465 0.00443447 -0.00327153
-0.00607351 0.00573854 -0.00382342
0 0 0
0 0 0
-0.00239315 0.00459453 -0.00159136
-0.00538565 0.00599163 -0.00264953
0 0 0
0 0 0
-0.00232879 0.00469758 -0.000575687
-0.00515669 0.00592205 -0.0017285
-0.00207256 0.00446981 1.68659e-05
-0.00471936 0.00610252 1.29682e-05
-0.00232982 0.00468016 0.000612128
-0.0051663 0.00591251 0.00175329
0 0 0
0 0 0
-0.00238159 0.0045545 0.00160035
-0.0053814 0.00595947 0.0026682
-0.0030304 0.00441811 0.00326405
-0.00606904 0.00570826 0.00381813
-0.00551547 0.00372121 0.00489228
-0.00788886 0.00567987 0.00569766
-0.00876401 -0.00659405 -0.00579066
-0.00827179 -0.00679113 -0.00459548
-0.0087316 -0.00564951 -0.00674307
-0.00815464 -0.00459336 -0.00682511
-0.0112297 -0.00713357 -0.00716614
-0.0130673 -0.00743331 -0.00740255
-0.0107514 -0.00619095 -0.00724932
-0.0126206 -0.00539052 -0.00765097
-0.00726837 -0.00704063 -0.0022217
-0.00722379 -0.00703239 -0.00111199
-0.00725631 -0.00575951 -0.0046569
-0.00729225 -0.00457626 -0.00587576
-0.0104426 -0.00736641 -0.00522332
-0.0128825 -0.00746022 -0.00652295
-0.0101564 -0.00758925 -0.00397539
-0.0125972 -0.0078658 -0.00418945
-0.00990133 -0.00771248 -0.00269692
-0.0124028 -0.00816489 -0.00146455
-0.00984755 -0.00639319 -0.00520451
-0.0124196 -0.00537873 -0.00670298
-0.00720672 -0.0070386 0.00113389
-0.00723326 -0.00704389 0.00222759
-0.00966762 -0.00773965 1.32242e-05
-0.0123047 -0.00820552 9.02234e-06
-0.00825188 -0.00679006 0.00458306
-0.0087464 -0.00660192 0.00577153
-0.00719927 -0.00575966 0.0046478
-0.00726847 -0.00458695 0.00589994
-0.00982222 -0.00770185 0.00262635
-0.0123198 -0.00815213 0.0014379
-0.010186 -0.0075837 0.00392404
-0.0127094 -0.00785689 0.00410241
-0.0104199 -0.00737158 0.00518326
-0.012862 -0.00746216 0.00646213
-0.00980696 -0.00639616 0.00516416
-0.0124263 -0.00538146 0.00669088
-0.00870647 -0.00567724 0.00673896
-0.00814564 -0.00461734 0.00684772
-0.011202 -0.0071719 0.00712265
-0.013047 -0.00746183 0.00734485
-0.0107268 -0.00622938 0.0072343
-0.0126121 -0.00541615 0.00764991
-0.00735503 -0.00226695 -0.00706611
-0.00721737 -0.00111664 -0.00709375
-0.0100289 -0.00394166 -0.00763558
-0.0124646 -0.00418687 -0.00784353
-0.00737874 -0.00226121 0.00708527
-0.00723185 -0.00110114 0.00709663
-0.0100509 -0.00396476 0.0076604
-0.0124872 -0.00421146 0.00786509
-0.0072182 0.00111084 -0.00707193
-0.00736827 0.00224864 -0.0070354
-0.00973516 -0.00128372 -0.00778136
-0.0123755 -0.00279423 -0.00799569
-0.00972897 1.22725e-05 -0.00786329
-0.0124033 3.95063e-05 -0.00826509
-0.0096993 0.00132338 -0.00774369
-0.0123924 0.00282352 -0.00797084
-0.00721345 0.00112103 0.00703891
-0.00736775 0.00224872 0.00702683
-0.0097475 -0.001296 0.00779103
-0.0124081 -0.00282949 0.00801875
-0.00970139 1.94701e-05 0.00784126
-0.0123479 1.474e-05 0.00825149
-0.00969522 0.00135224 0.00776448
-0.0123811 0.00286068 0.00802049
-0.00812442 0.00462387 -0.00678577
-0.00871056 0.00567443 -0.00669798
-0.00722441 0.00461596 -0.0058212
-0.00720545 0.00582813 -0.00462671
-0.0101585 0.00386454 -0.00760303
-0.0126961 0.00406449 -0.00787188
-0.00722907 0.00463509 0.00583868
-0.00718407 0.00581615 0.00460749
-0.00814176 0.00466077 0.00680144
-0.00872066 0.00572023 0.00669187
-0.0101738 0.00394203 0.00764532
-0.0127005 0.00414864 0.00787636
-0.00872341 0.00661718 -0.00578283
-0.00824168 0.00684301 -0.00460337
-0.0107241 0.00617502 -0.00722647
-0.012692 0.00532197 -0.00763185
-0.011174 0.00712698 -0.00715598
-0.0130375 0.00738961 -0.00739785
-0.00725016 0.00706413 -0.00222977
-0.00720409 0.00705015 -0.00112112
-0.00980226 0.00640734 -0.00517773
-0.0124543 0.00531443 -0.00668149
-0.0103781 0.0073789 -0.00521798
-0.0128286 0.00742133 -0.00650643
-0.010123 0.00762808 -0.00398965
-0.0125823 0.00785699 -0.0042108
-0.00986597 0.00771204 -0.00269454
-0.0123589 0.00812582 -0.00146009
-0.00720885 0.00706325 0.00112187
-0.00724594 0.00708056 0.00221796
-0.00965763 0.00774077 3.96316e-06
-0.0122764 0.00819859 4.32856e-06
-0.00824626 0.00683611 0.00456296
-0.00874243 0.00663358 0.00574135
-0.00979347 0.00643408 0.00514368
-0.012475 0.0053791 0.0066835
-0.00982142 0.00772519 0.00262625
-0.0123039 0.00812964 0.00143425
-0.0101364 0.00762117 0.0039133
-0.0126207 0.00788328 0.00411323
-0.0103843 0.0074016 0.00516024
-0.0128245 0.00746828 0.0064706
-0.0107323 0.00626065 0.00721675
-0.0126831 0.00540071 0.00764861
-0.0111972 0.00720711 0.00710498
-0.0130359 0.0074563 0.00736173
-0.0149845 -0.00751897 -0.00653817
-0.0149887 -0.00762013 -0.00542791
-0.0149557 -0.0065136 -0.00747788
-0.0149355 -0.00544694 -0.00755883
-0.016889 -0.00743723 -0.00732605
-0.0187849 -0.00713196 -0.0071123
-0.0171098 -0.00743618 -0.0064364
-0.0195551 -0.00733087 -0.00516626
-0.0150282 -0.00797231 -0.00287097
-0.01507 -0.00818696 -0.0014544
-0.0150316 -0.00663568 -0.00542662
-0.0149987 -0.00539393 -0.00660797
-0.0150544 -0.00551603 -0.0055193
-0.0149996 -0.00279935 -0.00696311
-0.0173581 -0.00774324 -0.00413075
-0.0197563 -0.00752854 -0.00391951
-0.0177943 -0.00545923 -0.00546422
-0.0206593 -0.00260238 -0.00664346
-0.0150271 -0.00820681 0.00141281
-0.0150152 -0.00804267 0.00282778
-0.0150434 -0.00585181 -0.00291931
-0.0149763 -0.00291948 -0.00582152
-0.0149717 -0.00579479 0.00289478
-0.0150085 -0.00291287 0.00581173
-0.0175852 -0.00798979 -0.00145044
-0.0199921 -0.00761339 -0.002681
-0.0176025 -0.00817566 4.00259e-06
-0.0202474 -0.00784495 5.50302e-06
-0.0176631 -0.00811388 0.00141686
-0.0201397 -0.00774463 0.00266679
-0.0181565 -0.00574324 -0.00282057
-0.0211619 -0.00264897 -0.00543366
-0.0180921 -0.00568596 0.00279278
-0.0212143 -0.00263566 0.0053949
-0.0213906 -0.00536291 -4.78863e-07
-0.0275114 -0.0018229 3.02092e-05
-0.0213493 -0.00538948 0.00132382
-0.0274023 -0.00188837 0.00183956
-0.0150128 -0.00760458 0.00537381
-0.0149753 -0.0074992 0.00648533
-0.0150368 -0.00663309 0.00539408
-0.0149997 -0.00536945 0.00660399
-0.0150355 -0.00545568 0.00558245
-0.0150417 -0.00279298 0.00701722
-0.0174643 -0.00771809 0.0041269
-0.0198863 -0.00749238 0.0039589
-0.0177902 -0.00543053 0.00544849
-0.0206942 -0.00257424 0.00662145
-0.0149636 -0.00651894 0.0074424
-0.0149392 -0.0054467 0.00754108
-0.0171141 -0.00741441 0.00642301
-0.0195937 -0.00731817 0.00517847
-0.0169053 -0.00741552 0.00731721
-0.0188018 -0.00710661 0.00711438
-0.014986 -0.00291014 -0.00786075
-0.014996 -0.00149901 -0.00811437
-0.0173176 -0.00538546 -0.0075856
-0.0192497 -0.00617642 -0.00719485
-0.0175589 -0.00535326 -0.00659842
-0.0201116 -0.00638011 -0.00513609
-0.017433 -0.00416438 -0.00772118
-0.0198018 -0.00393726 -0.00749322
-0.017501 -0.00285033 -0.00785622
-0.0202215 -0.00139119 -0.00779165
-0.0149958 -0.00290722 0.00790596
-0.0149946 -0.00150028 0.00814835
-0.0175507 -0.00533525 0.00658463
-0.0201197 -0.00635653 0.00513947
-0.0173248 -0.00537199 0.00757614
-0.0192532 -0.00615715 0.00718974
-0.0174481 -0.00415683 0.0077289
-0.0198264 -0.00393065 0.00748893
-0.017522 -0.00283905 0.00785813
-0.0202944 -0.00136651 0.00776138
-0.0150084 0.00142299 -0.008293
-0.0150521 0.00284725 -0.0080257
-0.014903 0.00289152 -0.00583111
-0.0149694 0.00582338 -0.00292792
-0.0176555 1.67803e-05 -0.00827156
-0.0203584 8.59002e-06 -0.00792005
-0.0180613 0.00280395 -0.00573454
-0.0212045 0.00543705 -0.00266782
-0.0214002 -7.71826e-06 -0.00539782
-0.0274994 1.14907e-05 -0.00181529
-0.0213467 0.0013301 -0.00540687
-0.0274052 0.00185653 -0.00187105
-0.0149834 0.00138952 0.00821167
-0.0150506 0.00281059 0.00793775
-0.0150243 0.00292013 0.00579525
-0.0149716 0.00581309 0.00287232
-0.0149638 0.0027951 0.00700243
-0.0149327 0.00551027 0.00550216
-0.0176453 8.29386e-06 0.00822087
-0.0203773 2.25991e-05 0.00787664
-0.0181686 0.00281655 0.00568789
-0.0211805 0.00539527 0.00261684
-0.0178814 0.00271572 0.00694265
-0.0205896 0.00523763 0.00519887
-0.0214577 -2.46848e-06 0.00534041
-0.0274272 -1.9554e-05 0.00179878
-0.021139 1.408e-05 0.00669476
-0.0270792 -3.24246e-05 0.00392635
-0.02146 0.00130421 0.00539696
-0.0273474 0.00179667 0.00183379
-0.0210203 0.00132434 0.00665124
-0.0269267 0.00175939 0.00393172
-0.0150217 0.00541551 -0.0075462
-0.0149639 0.00646461 -0.00746593
-0.0150108 0.00542618 -0.0066029
-0.0149667 0.00661766 -0.0053905
-0.0149738 0.00560607 -0.00545252
-0.0149916 0.00704487 -0.00280304
-0.0175255 0.00285156 -0.00799263
-0.0202193 0.00134994 -0.00779842
-0.0174518 0.00413709 -0.00783823
-0.0198504 0.00392107 -0.00760809
-0.0173234 0.00530862 -0.00757209
-0.0192254 0.00619299 -0.00720751
-0.0175397 0.00532857 -0.00664647
-0.0200502 0.00641433 -0.0051515
-0.0177422 0.00546095 -0.00548278
-0.0206777 0.00666098 -0.0026199
-0.0209256 0.00396867 -0.00531796
-0.0271736 0.00286066 -0.00182344
-0.0150213 0.0053847 0.00659599
-0.0149819 0.00662139 0.00541833
-0.0150197 0.0053641 0.007484
-0.0149643 0.00645562 0.00743895
-0.0175844 0.00285445 0.00793139
-0.0202885 0.00134185 0.00776872
-0.0175275 0.00419646 0.00776518
-0.0199471 0.003978 0.00756318
-0.0175099 0.00532119 0.00663699
-0.0200729 0.00642727 0.00514541
-0.0173541 0.00534756 0.00758117
-0.0192192 0.00621401 0.00720062
-0.0205166 0.00393707 0.00651115
-0.0266495 0.00269461 0.00388152
-0.0149524 0.00745096 -0.00653809
-0.0149526 0.00756318 -0.0054383
-0.0169006 0.00738815 -0.00737633
-0.018782 0.00714785 -0.00713094
-0.0171032 0.00740307 -0.00647772
-0.0195639 0.00733891 -0.00516212
-0.0150346 0.00792439 -0.00290118
-0.0150087 0.00816565 -0.00146819
-0.0174436 0.00775022 -0.004179
-0.0199097 0.00751756 -0.00397716
-0.0150157 0.00815581 0.00140704
-0.0150259 0.0079832 0.00283258
-0.0176596 0.00803202 -0.00145933
-0.0202023 0.00766655 -0.00265782
-0.0176366 0.00819124 7.45741e-06
-0.0203117 0.00781485 1.74128e-05
-0.0176388 0.0079961 0.00144145
-0.0201792 0.00763137 0.00265531
-0.0214009 0.00535219 -1.17912e-05
-0.0274037 0.00183397 -6.12938e-06
-0.0210965 0.00668793 -4.6682e-06
-0.0270176 0.00395099 -6.84949e-06
-0.014981 0.00759532 0.00542298
-0.0149628 0.00748597 0.00653525
-0.0175037 0.00772553 0.0041559
-0.0199201 0.00751947 0.00394787
-0.0171149 0.00742221 0.00646472
-0.0195753 0.00737367 0.00517645
-0.0169096 0.00740432 0.00736015
-0.0187658 0.00715891 0.00710959
-0.0212368 -0.00665048 -0.00578338
-0.0216863 -0.00690461 -0.00458674
-0.021242 -0.00570446 -0.006721
-0.0217943 -0.00465655 -0.00685595
-0.0220649 -0.00569903 -0.00571581
-0.0244443 -0.00374436 -0.00489169
-0.0232582 -0.0047449 -0.00589239
-0.0265152 -0.00183505 -0.0044769
-0.0226094 -0.0072852 -0.00224663
-0.0227895 -0.00729063 -0.00110677
-0.0226744 -0.00588936 -0.00467228
-0.0226587 -0.0046565 -0.00592516
-0.0234784 -0.0047182 -0.00476816
-0.0234819 -0.00219714 -0.00610267
-0.0238615 -0.00570776 -0.00381994
-0.0269467 -0.00442974 -0.00325759
-0.0245138 -0.0059794 -0.00264306
-0.0276009 -0.00450444 -0.00158037
-0.0246844 -0.00598984 -0.00174399
-0.0276428 -0.00465005 -0.000587526
-0.0254297 -0.00478386 -0.00377808
-0.0282266 -0.00218114 -0.00328978
-0.026051 -0.0048787 -0.00264994
-0.0287774 -0.0022652 -0.00158182
-0.0263499 -0.00504592 -0.00179483
-0.0289487 -0.0023852 -0.000499485
-0.0266483 -0.00377694 -0.00277025
-0.0291207 -0.00108853 -0.00161776
-0.0268613 -0.00384718 -0.00175708
-0.0292712 -0.00101001 -0.000493933
-0.0228504 -0.00715858 0.00116253
-0.0227461 -0.00714705 0.00231952
-0.0242302 -0.00484861 -0.00230752
-0.0241545 -0.00230475 -0.00484073
-0.0252347 -0.00623872 -1.47722e-05
-0.0279247 -0.00447182 -2.00418e-05
-0.0264072 -0.00514044 -7.89805e-06
-0.0289249 -0.00249405 -5.92842e-06
-0.0269397 -0.00398886 2.5236e-06
-0.0292622 -0.00109662 -1.13865e-05
-0.0269205 -0.0039719 0.00086871
-0.0291908 -0.00107546 0.00102488
-0.0217375 -0.00686234 0.00461189