# vtk DataFile Version 3.0
vtk output at time 0.9
ASCII
DATASET UNSTRUCTURED_GRID
POINTS 1524 float
0 0 0 0 0 0.05 0 0 0.1 
0 0 0.15 0 0 0.2 0 0.05 0 
0 0.05 0.05 0 0.05 0.1 0 0.05 0.15 
0 0.05 0.2 0 0.1 0 0 0.1 0.05 
0 0.1 0.1 0 0.1 0.15 0 0.1 0.2 
0 0.15 0 0 0.15 0.05 0 0.15 0.1 
0 0.15 0.15 0 0.15 0.2 0 0.2 0 
0 0.2 0.05 0 0.2 0.1 0 0.2 0.15 
0 0.2 0.2 0.0353289 -0.0088766 -0.00952538 0.0380885 -0.00966458 0.045029 
0.039088 -0.00962035 0.100036 0.0382063 -0.00966127 0.15497 0.0353724 -0.00893642 0.209482 
0.0381235 0.0451496 -0.00971449 0.0380879 0.045118 0.209753 0.0392875 0.100016 -0.00993248 
0.0392678 0.100038 0.209918 0.0382058 0.154829 -0.00962617 0.0381153 0.154888 0.209674 
0.0354438 0.208887 -0.00946604 0.038137 0.209701 0.045033 0.0390971 0.209667 0.100012 
0.0381958 0.209718 0.154935 0.0354177 0.209002 0.209399 0.0775622 -0.0104398 -0.0104204 
0.0774827 -0.0108243 0.0440453 0.0774339 -0.0117438 0.0999834 0.0772434 -0.0109586 0.155916 
0.077576 -0.0104321 0.210405 0.07766 0.0439704 -0.0106994 0.0776467 0.044013 0.210746 
0.0774664 0.100037 -0.0119037 0.0775834 0.0999684 0.211819 0.0771186 0.156053 -0.0108327 
0.0771986 0.155886 0.210754 0.0775522 0.210427 -0.0103865 0.0775374 0.210784 0.0440298 
0.0776334 0.211767 0.0999974 0.0774109 0.210943 0.15594 0.0775912 0.210385 0.210466 
0.119595 -0.00893322 -0.00948269 0.117144 -0.00991508 0.045077 0.115825 -0.0100156 0.100039 
0.116909 -0.00980593 0.155029 0.119572 -0.00889897 0.209485 0.117204 0.0450969 -0.00992633 
0.117135 0.0451357 0.209803 0.115587 0.10007 -0.0101171 0.115572 0.10009 0.210003 
0.116992 0.154945 -0.00971895 0.11687 0.154899 0.209682 0.119671 0.208953 -0.00946927 
0.117144 0.209872 0.0450067 0.11584 0.209867 0.100036 0.116938 0.209943 0.15487 
0.119668 0.208968 0.209443 0.155 0 0 0.155 0 0.05 
0.155 0 0.1 0.155 0 0.15 0.155 0 0.2 
0.155 0.05 0 0.155 0.05 0.05 0.155 0.05 0.1 
0.155 0.05 0.15 0.155 0.05 0.2 0.155 0.1 0 
0.155 0.1 0.05 0.155 0.1 0.1 0.155 0.1 0.15 
0.155 0.1 0.2 0.155 0.15 0 0.155 0.15 0.05 
0.155 0.15 0.1 0.155 0.15 0.15 0.155 0.15 0.2 
0.155 0.2 0 0.155 0.2 0.05 0.155 0.2 0.1 
0.155 0.2 0.15 0.155 0.2 0.2 0 0 0.0166667 
0 0 0.0333333 0 0.0166667 0 0 0.0333333 0 
0.00655078 -0.00525196 -0.00656145 0.0202711 -0.0078485 -0.00792134 0.0112578 -0.0064329 0.0119879 
0.0235851 -0.00794205 0.0279145 0 0 0.0666667 0 0 0.0833333 
0 0.0166667 0.0333333 0 0.0333333 0.0166667 0 0.0166667 0.05 
0 0.0333333 0.05 0 0.0166667 0.0666667 0 0.0333333 0.0833333 
0.0125852 -0.00650711 0.0477445 0.0247905 -0.00827971 0.0461857 0 0 0.116667 
0 0 0.133333 0 0.0166667 0.1 0 0.0333333 0.1 
0.0128058 -0.00650639 0.0825948 0.0252591 -0.00811066 0.0641982 0.0134521 -0.00614601 0.100057 
0.0260817 -0.00833033 0.100051 0.0128436 -0.00645584 0.117507 0.0253296 -0.00805184 0.135862 
0 0 0.166667 0 0 0.183333 0 0.0166667 0.133333 
0 0.0333333 0.116667 0 0.0166667 0.15 0 0.0333333 0.15 
0 0.0166667 0.166667 0 0.0333333 0.183333 0.012646 -0.0064267 0.15225 
0.0248641 -0.00821672 0.153834 0 0.0166667 0.2 0 0.0333333 0.2 
0.011289 -0.00642998 0.187972 0.023651 -0.00791779 0.172067 0.0065889 -0.0052819 0.206515 
0.0203136 -0.00788692 0.207874 0 0.05 0.0166667 0 0.05 0.0333333 
0 0.0666667 0 0 0.0833333 0 0 0.0666667 0.0166667 
0 0.0833333 0.0333333 0.0105469 0.0305608 -0.0063392 0.0222951 0.0100685 -0.00822868 
0.0135451 0.0300137 0.0118793 0.0259359 0.00998929 0.0278345 0.0125303 0.0479799 -0.00630926 
0.0251129 0.0463641 -0.00863174 0.0129579 0.0657863 -0.00648735 0.025662 0.0822216 -0.00835825 
0 0.05 0.0666667 0 0.05 0.0833333 0 0.0666667 0.05 
0 0.0833333 0.05 0.0145944 0.0299576 0.0477433 0.0270203 0.00987636 0.0461559 
0.0143897 0.0477127 0.0299117 0.0267401 0.0462077 0.00975281 0.0148951 0.0652663 0.0299086 
0.0278403 0.0821341 0.00981694 0.027868 0.0280776 0.0460628 0.0522923 0.00750325 0.0443788 
0.028486 0.0279867 0.0641225 0.0530799 0.00734592 0.0814429 0.0279868 0.0461064 0.0278923 
0.0523427 0.0444762 0.00741885 0.028587 0.0640562 0.0279194 0.0531437 0.0815084 0.00735588 
0 0.05 0.116667 0 0.05 0.133333 0 0.0666667 0.0833333 
0 0.0833333 0.0666667 0 0.0666667 0.1 0 0.0833333 0.1 
0 0.0666667 0.116667 0 0.0833333 0.133333 0.0149417 0.0299999 0.0826934 
0.027542 0.00980008 0.0641347 0.0149956 0.0299648 0.100047 0.0276921 0.00991916 0.100037 
0.0149952 0.0300176 0.117418 0.0276489 0.00981694 0.135954 0.0289408 0.0280275 0.10001 
0.0534154 0.0072929 0.100054 0.0288232 0.0279769 0.117969 0.0529899 0.00742137 0.137076 
0.0293945 0.0640545 0.0640727 0.0539211 0.0814863 0.025781 0 0.05 0.166667 
0 0.05 0.183333 0 0.0666667 0.15 0 0.0833333 0.15 
0.0146635 0.0300102 0.152364 0.0271705 0.00992511 0.153902 0.0144192 0.0477121 0.170117 
0.0267368 0.0461904 0.190289 0.0148465 0.0652436 0.170121 0.0277596 0.0821329 0.190214 
0.0282516 0.0280226 0.154042 0.0524936 0.00757166 0.155555 0.0280154 0.0461057 0.172143 
0.0522897 0.0444436 0.192611 0.0284707 0.0640731 0.172103 0.0530491 0.0814375 0.192683 
0 0.0666667 0.183333 0 0.0833333 0.166667 0 0.0666667 0.2 
0 0.0833333 0.2 0.0135556 0.0299941 0.188153 0.0260287 0.0100011 0.172166 
0.0105448 0.0305155 0.206365 0.0223263 0.010021 0.208214 0.0125118 0.0479458 0.206328 
0.0250856 0.0463299 0.208664 0.0129166 0.0657684 0.206517 0.0256021 0.0822324 0.208387 
0 0.1 0.0166667 0 0.1 0.0333333 0 0.116667 0 
0 0.133333 0 0.0126469 0.100084 -0.00658859 0.0253718 0.0999395 -0.0079398 
0 0.1 0.0666667 0 0.1 0.0833333 0 0.116667 0.0333333 
0 0.133333 0.0166667 0 0.116667 0.05 0 0.133333 0.05 
0 0.116667 0.0666667 0 0.133333 0.0833333 0.0150096 0.100021 0.0299549 
0.0279948 0.100009 0.00975764 0.0149351 0.117441 0.0299503 0.0275241 0.135865 0.009813 
0.0290032 0.100011 0.0278718 0.053471 0.0999981 0.00731871 0.0288333 0.117933 0.0278686 
0.0529777 0.136996 0.00745963 0 0.1 0.116667 0 0.1 0.133333 
0 0.116667 0.1 0 0.133333 0.1 0.0296546 0.0641753 0.0999854 
0.0538825 0.0258175 0.0999807 0.0294582 0.0642832 0.117899 0.053661 0.025812 0.137066 
0.0295731 0.100008 0.0641888 0.0540086 0.100021 0.025841 0.0299071 0.0999864 0.135835 
0.0539069 0.0999825 0.174252 0.0294581 0.117902 0.0642275 0.0537093 0.13698 0.0258567 
0.0295883 0.117867 0.135828 0.0536008 0.137188 0.174203 0.0297836 0.135837 0.0999924 
0.0538867 0.174212 0.0999543 0.0295238 0.135779 0.117841 0.0536339 0.174227 0.137075 
0.0555688 0.100009 0.0999732 0.0995135 0.100012 0.100019 0 0.1 0.166667 
0 0.1 0.183333 0 0.116667 0.133333 0 0.133333 0.116667 
0 0.116667 0.15 0 0.133333 0.15 0 0.116667 0.166667 
0 0.133333 0.183333 0.0150287 0.100006 0.169942 0.0279918 0.100022 0.19017 
0.0149624 0.117371 0.169957 0.0275104 0.135823 0.190172 0.029049 0.0640582 0.154005 
0.0532233 0.0258741 0.15561 0.0290042 0.0999668 0.172025 0.0534081 0.100013 0.192756 
0.0288465 0.117914 0.172025 0.0528984 0.137114 0.192604 0.0290233 0.13588 0.153931 
0.0532537 0.174154 0.155581 0 0.116667 0.2 0 0.133333 0.2 
0.0126491 0.100101 0.206578 0.0253626 0.0999599 0.20792 0 0.15 0.0166667 
0 0.15 0.0333333 0 0.166667 0 0 0.183333 0 
0 0.166667 0.0166667 0 0.183333 0.0333333 0.0127127 0.134797 -0.00644405 
0.0255023 0.117828 -0.00820317 0.0130428 0.152021 -0.00623091 0.0255338 0.153666 -0.00855943 
0.0107942 0.169298 -0.00628913 0.0224079 0.189938 -0.00815832 0.0135871 0.169859 0.0118675 
0.0260015 0.190074 0.0278832 0 0.15 0.0666667 0 0.15 0.0833333 
0 0.166667 0.05 0 0.183333 0.05 0.0146396 0.152346 0.0299184 
0.0271648 0.153848 0.00982811 0.014622 0.17005 0.0477536 0.0270689 0.190161 0.0461817 
0.0282374 0.153962 0.0279576 0.0524731 0.155446 0.00758219 0.0280525 0.172021 0.046066 
0.0523873 0.192497 0.044423 0.0285601 0.17207 0.0641009 0.0530816 0.19262 0.0814318 
0 0.15 0.116667 0 0.15 0.133333 0 0.166667 0.0833333 
0 0.183333 0.0666667 0 0.166667 0.1 0 0.183333 0.1 
0 0.166667 0.116667 0 0.183333 0.133333 0.0149547 0.170018 0.0826792 
0.0275741 0.190246 0.0641257 0.0150079 0.170072 0.100014 0.02769 0.190137 0.100014 
0.0149807 0.170015 0.117368 0.0276166 0.190248 0.135924 0.029071 0.153975 0.0640395 
0.0532687 0.155504 0.0259027 0.0289758 0.172035 0.0999977 0.0533871 0.192712 0.100038 
0.028793 0.172067 0.117932 0.0529483 0.192616 0.137074 0 0.15 0.166667 
0 0.15 0.183333 0 0.166667 0.15 0 0.183333 0.15 
0.0146132 0.15228 0.170088 0.0270893 0.15383 0.190213 0.0146537 0.169996 0.15232 
0.0271334 0.190126 0.153863 0.0281335 0.153913 0.172063 0.0523446 0.155598 0.192497 
0.028313 0.172061 0.15397 0.0525013 0.192475 0.155524 0 0.166667 0.183333 
0 0.183333 0.166667 0 0.166667 0.2 0 0.183333 0.2 
0.0127019 0.134771 0.20644 0.0254752 0.117829 0.208166 0.0130018 0.152011 0.206257 
0.025458 0.153675 0.208593 0.0135907 0.16985 0.188144 0.0260406 0.190049 0.172113 
0.0107783 0.169308 0.206301 0.0223916 0.189982 0.208146 0 0.2 0.0166667 
0 0.2 0.0333333 0.00661896 0.205126 -0.00656781 0.0203177 0.207843 -0.00785857 
0.0113063 0.20634 0.0119672 0.0235883 0.207977 0.0279406 0 0.2 0.0666667 
0 0.2 0.0833333 0.0125688 0.206495 0.0477273 0.0247612 0.20829 0.0462182 
0 0.2 0.116667 0 0.2 0.133333 0.0127964 0.206523 0.0825667 
0.0252643 0.208139 0.0642005 0.0134282 0.206171 0.100024 0.0260684 0.208378 0.100022 
0.0128075 0.206495 0.117482 0.0252781 0.208112 0.13583 0 0.2 0.166667 
0 0.2 0.183333 0.0125952 0.20645 0.15227 0.0247843 0.208256 0.153789 
0.0113093 0.206338 0.188009 0.0236004 0.207958 0.172034 0.00660047 0.205142 0.206541 
0.0202895 0.207884 0.207816 0.0361599 -0.00911739 0.00858642 0.0370114 -0.00938882 0.0268402 
0.0361954 0.00880299 -0.00937179 0.0372223 0.0268986 -0.00947583 0.0492894 -0.00989449 -0.00998215 
0.0634587 -0.0103556 -0.0103266 0.0500548 0.00801006 -0.0100845 0.0642114 0.025716 -0.010663 
0.0388791 -0.00976072 0.063519 0.0389863 -0.0097079 0.081777 0.0385619 0.00861966 0.0267488 
0.038544 0.0268846 0.00845596 0.0505824 -0.0102361 0.0259626 0.0637581 -0.0104046 0.00751881 
0.0510811 -0.0105384 0.044358 0.0642231 -0.0109532 0.0440637 0.0515865 -0.0106931 0.062842 
0.0646473 -0.0113595 0.081254 0.0515084 0.00772703 0.0259792 0.0645211 0.0257307 0.00727316 
[...]
POINT_DATA 1524
VECTORS displacement float
0 0 0
0 0 0
0 0 0
0 0 0
0 0 0
0 0 0
0 0 0
0 0 0
0 0 0
0 0 0
0 0 0
0 0 0
0 0 0
0 0 0
0 0 0
0 0 0
0 0 0
0 0 0
0 0 0
0 0 0
0 0 0
0 0 0
0 0 0
0 0 0
0 0 0
-0.0146711 -0.0088766 -0.00952538
-0.0119115 -0.00966458 -0.00497098
-0.010912 -0.00962035 3.63555e-05
-0.0117937 -0.00966127 0.00496958
-0.0146276 -0.00893642 0.00948189
-0.0118765 -0.00485036 -0.00971449
-0.0119121 -0.00488198 0.0097532
-0.0107125 1.62878e-05 -0.00993248
-0.0107322 3.84331e-05 0.00991844
-0.0117942 0.00482881 -0.00962617
-0.0118847 0.00488801 0.00967415
-0.0145562 0.00888734 -0.00946604
-0.011863 0.00970122 -0.00496702
-0.0109029 0.00966698 1.17717e-05
-0.0118042 0.00971839 0.00493533
-0.0145823 0.00900204 0.00939889
-0.0224379 -0.0104398 -0.0104204
-0.0225173 -0.0108243 -0.00595468
-0.0225661 -0.0117438 -1.65865e-05
-0.0227566 -0.0109586 0.00591638
-0.022424 -0.0104321 0.0104045
-0.02234 -0.00602956 -0.0106994
-0.0223533 -0.00598703 0.0107464
-0.0225336 3.73479e-05 -0.0119037
-0.0224166 -3.15953e-05 0.0118192
-0.0228814 0.00605268 -0.0108327
-0.0228014 0.00588602 0.0107538
-0.0224478 0.0104273 -0.0103865
-0.0224627 0.010784 -0.00597023
-0.0223666 0.0117667 -2.56863e-06
-0.0225891 0.0109434 0.00594001
-0.0224088 0.0103854 0.0104663
-0.0304048 -0.00893322 -0.00948269
-0.0328561 -0.00991508 -0.00492301
-0.0341752 -0.0100156 3.94949e-05
-0.0330907 -0.00980593 0.00502913
-0.0304279 -0.00889897 0.00948467
-0.0327963 -0.0049031 -0.00992633
-0.0328648 -0.00486426 0.00980292
-0.034413 6.95877e-05 -0.0101171
-0.0344285 9.00461e-05 0.0100032
-0.0330078 0.00494495 -0.00971895
-0.0331298 0.00489939 0.00968172
-0.0303286 0.008953 -0.00946927
-0.0328561 0.00987167 -0.00499331
-0.0341604 0.00986672 3.62102e-05
-0.0330621 0.00994348 0.00487041
-0.0303317 0.00896801 0.00944322
-0.045 0 0
-0.045 0 0
-0.045 0 0
-0.045 0 0
-0.045 0 0
-0.045 0 0
-0.045 0 0
-0.045 0 0
-0.045 0 0
-0.045 0 0
-0.045 0 0
-0.045 0 0
-0.045 0 0
-0.045 0 0
-0.045 0 0
-0.045 0 0
-0.045 0 0
-0.045 0 0
-0.045 0 0
-0.045 0 0
-0.045 0 0
-0.045 0 0
-0.045 0 0
-0.045 0 0
-0.045 0 0
0 0 0
0 0 0
0 0 0
0 0 0
-0.0101159 -0.00525196 -0.00656145
-0.0130622 -0.0078485 -0.00792134
-0.00540887 -0.0064329 -0.00467876
-0.00974827 -0.00794205 -0.00541881
0 0 0
0 0 0
0 0 0
0 0 0
0 0 0
0 0 0
0 0 0
0 0 0
-0.00408147 -0.00650711 -0.00225549
-0.0085428 -0.00827971 -0.00381427
0 0 0
0 0 0
0 0 0
0 0 0
-0.00386089 -0.00650639 -0.000738573
-0.00807421 -0.00811066 -0.00246848
-0.00321462 -0.00614601 5.67941e-05
-0.00725161 -0.00833033 5.12427e-05
-0.00382311 -0.00645584 0.000840619
-0.00800375 -0.00805184 0.00252883
0 0 0
0 0 0
0 0 0
0 0 0
0 0 0
0 0 0
0 0 0
0 0 0
-0.00402068 -0.0064267 0.00224961
-0.00846919 -0.00821672 0.00383424
0 0 0
0 0 0
-0.00537763 -0.00642998 0.00463816
-0.00968232 -0.00791779 0.00540023
-0.0100778 -0.0052819 0.00651524
-0.0130197 -0.00788692 0.00787407
0 0 0
0 0 0
0 0 0
0 0 0
0 0 0
0 0 0
-0.00611982 -0.00277256 -0.0063392
-0.0110382 -0.00659817 -0.00822868
-0.00312157 -0.00331959 -0.00478737
-0.00739739 -0.00667738 -0.00549883
-0.00413636 -0.00202009 -0.00630926
-0.00822044 -0.00363589 -0.00863174
-0.00370874 -0.000880345 -0.00648735
-0.0076713 -0.00111176 -0.00835825
0 0 0
0 0 0
0 0 0
0 0 0
-0.00207225 -0.00337576 -0.00225674
-0.00631305 -0.0067903 -0.00384413
-0.00227696 -0.00228733 -0.00342159
-0.00659322 -0.0037923 -0.00691386
-0.00177161 -0.00140037 -0.00342468
-0.00549304 -0.00119921 -0.00684973
-0.00546531 -0.00525576 -0.00393717
-0.0143744 -0.00916342 -0.00562118
-0.00484733 -0.00534665 -0.00254416
-0.0135867 -0.00932075 -0.00189048
-0.00534658 -0.00389364 -0.00544099
-0.0143239 -0.0055238 -0.00924782
-0.00474637 -0.00261042 -0.00541398
-0.013523 -0.00182491 -0.00931079
0 0 0
0 0 0
0 0 0
0 0 0
0 0 0
0 0 0
0 0 0
0 0 0
-0.00172497 -0.00333343 -0.000639978
-0.00579131 -0.00686659 -0.00253193
-0.00167107 -0.00336853 4.66324e-05
-0.00564122 -0.00674751 3.74215e-05
-0.00167147 -0.00331572 0.000751331
-0.00568441 -0.00684973 0.00262112
-0.00439258 -0.0053058 9.61225e-06
-0.0132512 -0.00937377 5.37447e-05
-0.00451011 -0.00535641 0.00130241
-0.0136767 -0.0092453 0.00374289
-0.00393885 -0.00261212 -0.00259398
-0.0127455 -0.00184703 -0.00755229
0 0 0
0 0 0
0 0 0
0 0 0
-0.00200314 -0.00332315 0.0023642
-0.00616285 -0.00674156 0.00390206
-0.0022475 -0.0022879 0.00345067
-0.00659656 -0.00380963 0.00695568
-0.00182014 -0.00142303 0.00345417
-0.00557376 -0.00120045 0.00688114
-0.00508169 -0.00531075 0.00404214
-0.0141731 -0.00909501 0.00555468
-0.00531789 -0.00389435 0.00547643
-0.0143769 -0.00555643 0.00927729
-0.00486268 -0.00259356 0.00543671
-0.0136176 -0.00189582 0.00934949
0 0 0
0 0 0
0 0 0
0 0 0
-0.00311111 -0.00333918 0.00481949
-0.0073046 -0.00666559 0.00549954
-0.00612188 -0.00281785 0.00636486
-0.011007 -0.00664564 0.00821438
-0.00415482 -0.00205419 0.00632815
-0.00824775 -0.00367006 0.00866436
-0.00375004 -0.000898244 0.00651704
-0.00773128 -0.00110091 0.00838672
0 0 0
0 0 0
0 0 0
0 0 0
-0.00401976 8.363e-05 -0.00658859
-0.00796151 -6.05257e-05 -0.0079398
0 0 0
0 0 0
0 0 0
0 0 0
0 0 0
0 0 0
0 0 0
0 0 0
-0.00165709 2.10239e-05 -0.00337842
-0.0053385 9.24918e-06 -0.00690903
-0.00173157 0.000774331 -0.00338305
-0.00580927 0.00253156 -0.00685366
-0.0043301 1.1237e-05 -0.00546154
-0.0131957 -1.85987e-06 -0.00934796
-0.00449999 0.00126637 -0.0054647
-0.013689 0.00366296 -0.00920703
0 0 0
0 0 0
0 0 0
0 0 0
-0.00367869 -0.00249141 -1.45658e-05
-0.0127841 -0.00751583 -1.93235e-05
-0.00387517 -0.00238348 0.00123209
-0.0130057 -0.0075213 0.00373309
-0.0037602 7.80976e-06 -0.0024779
-0.0126581 2.05071e-05 -0.00749237
-0.00342619 -1.36339e-05 0.00250121
-0.0127597 -1.74749e-05 0.0075851
-0.00387526 0.00123564 -0.00243917
-0.0129573 0.00364644 -0.00747665
-0.003745 0.00120036 0.00249459
-0.0130659 0.00385448 0.00753666
-0.00354974 0.00250411 -7.56156e-06
-0.01278 0.00754507 -4.57253e-05
-0.00380954 0.00244546 0.00117445
-0.0130327 0.00756037 0.00374156
-0.0110979 8.86989e-06 -2.6805e-05
-0.0338198 1.23305e-05 1.9054e-05
0 0 0
0 0 0
0 0 0
0 0 0
0 0 0
0 0 0
0 0 0
0 0 0
-0.00163793 6.38502e-06 0.00327531
-0.00534155 2.23114e-05 0.00683695
-0.00170429 0.000704316 0.00329071
-0.00582292 0.00248993 0.00683853
-0.00428432 -0.00260846 0.00400467
-0.0134434 -0.00745927 0.00561044
-0.00432908 -3.31606e-05 0.00535786
-0.0132585 1.26228e-05 0.00942286
-0.00448687 0.00124698 0.00535817
-0.0137683 0.00378063 0.00927111
-0.00431001 0.00254663 0.0039313
-0.0134129 0.00748716 0.00558112
0 0 0
0 0 0
-0.00401756 0.000101 0.00657775
-0.00797069 -4.01393e-05 0.00792009
0 0 0
0 0 0
0 0 0
0 0 0
0 0 0
0 0 0
-0.00395394 0.00146337 -0.00644405
-0.00783104 0.00116104 -0.00820317
-0.00362383 0.00202108 -0.00623091
-0.00779957 0.00366578 -0.00855943
-0.00587244 0.00263083 -0.00628913
-0.0109254 0.00660491 -0.00815832
-0.00307952 0.00319268 -0.00479921
-0.00733181 0.00674115 -0.0054501
0 0 0
0 0 0
0 0 0
0 0 0
-0.00202708 0.00234582 -0.00341498
-0.00616849 0.00384762 -0.00683856
-0.00204463 0.0033832 -0.00224644
-0.00626445 0.00682796 -0.00381834
-0.00509598 0.00396153 -0.00537575
-0.0141936 0.00544635 -0.00908448
-0.00528081 0.00535404 -0.00393404
-0.0142794 0.00916384 -0.005577
-0.00477323 0.00540363 -0.00256582
-0.0135851 0.0092866 -0.00190154
0 0 0
0 0 0
0 0 0
0 0 0
0 0 0
0 0 0
0 0 0
0 0 0
-0.00171202 0.00335136 -0.000654129
-0.00575921 0.0069128 -0.00254093
-0.00165879 0.00340508 1.41648e-05
-0.00564331 0.00680402 1.37055e-05
-0.00168595 0.00334825 0.000701277
-0.00571675 0.00691497 0.00259055
-0.0042623 0.00397461 -0.00262714
-0.013398 0.00550401 -0.00743061
-0.00435757 0.00536834 -2.30701e-06
-0.0132796 0.00937856 3.76463e-05
-0.00454034 0.0054005 0.00126574
-0.0137184 0.00928251 0.00374078
0 0 0
0 0 0
0 0 0
0 0 0
-0.00205347 0.00228035 0.00342124
-0.006244 0.00382957 0.00688009
-0.002013 0.00332981 0.00231981
-0.00619992 0.00679286 0.00386341
-0.00519988 0.00391268 0.00539631
-0.014322 0.00559802 0.0091632
-0.00502029 0.00539454 0.00396987
-0.0141653 0.00914212 0.00552385
0 0 0
0 0 0
0 0 0
0 0 0
-0.00396477 0.00143803 0.00644025
-0.00785808 0.00116256 0.00816646
-0.00366487 0.00201147 0.00625746
-0.00787532 0.00367508 0.00859328
-0.00307595 0.00318322 0.00481064
-0.00729277 0.00671575 0.00544653
-0.00588837 0.00264172 0.00630092
-0.0109418 0.00664818 0.00814646
0 0 0
0 0 0
-0.0100477 0.00512595 -0.00656781
-0.0130156 0.00784317 -0.00785857
-0.00536041 0.00633988 -0.00469944
-0.00974502 0.00797738 -0.00539276
0 0 0
0 0 0
-0.00409789 0.00649463 -0.00227266
-0.00857215 0.00829026 -0.00378183
0 0 0
0 0 0
-0.00387024 0.00652258 -0.000766661
-0.00806903 0.00813865 -0.00246616
-0.00323843 0.00617101 2.43388e-05
-0.0072649 0.00837778 2.174e-05
-0.0038592 0.00649463 0.000815504
-0.00805522 0.00811217 0.00249635
0 0 0
0 0 0
-0.00407151 0.00645023 0.00226995
-0.00854899 0.0082564 0.00378926
-0.00535734 0.00633826 0.00467538
-0.00973294 0.00795816 0.00536696
-0.0100662 0.00514234 0.00654057
-0.0130438 0.00788357 0.00781575
-0.0138401 -0.00911739 -0.00808025
-0.0129886 -0.00938882 -0.00649315
-0.0138046 -0.00786368 -0.00937179
-0.0127777 -0.00643469 -0.00947583
-0.0173772 -0.00989449 -0.00998215
-0.0198746 -0.0103556 -0.0103266
-0.0166119 -0.0086566 -0.0100845
-0.019122 -0.00761731 -0.010663
-0.0111209 -0.00976072 -0.00314762
-0.0110137 -0.0097079 -0.00155634
-0.0114381 -0.00804701 -0.00658452
-0.011456 -0.00644874 -0.00821071
-0.0160843 -0.0102361 -0.00737076
-0.0195753 -0.0104046 -0.00914785
-0.0155856 -0.0105384 -0.00564198
-0.0191102 -0.0109532 -0.00593632
-0.0150802 -0.0106931 -0.00382463
-0.018686 -0.0113595 -0.00207929
-0.0151582 -0.00893964 -0.00735415
-0.0188122 -0.0076026 -0.00939351
-0.0109601 -0.00969453 0.00161384
-0.0110104 -0.00973532 0.00317217
-0.0146188 -0.0107126 3.09582e-05
-0.0185238 -0.0114311 1.95356e-05
-0.0129116 -0.00938804 0.00646803
-0.0137869 -0.00914112 0.00804239
-0.0113128 -0.00805512 0.00657019
-0.0114146 -0.00647954 0.00824025
-0.0148893 -0.0106826 0.00375264
-0.018542 -0.0113652 0.00206106
-0.015561 -0.0105202 0.00558606
-0.0192556 -0.0109412 0.00583862
-0.0160075 -0.0102465 0.00733412
-0.0195264 -0.0104016 0.00911283
-0.0150512 -0.00894306 0.0073182
-0.0188164 -0.00758976 0.00940255
-0.0137677 -0.00791969 0.00936082
-0.0127711 -0.00648552 0.00950415
-0.0173326 -0.00994548 0.00994461
-0.0198377 -0.0103742 0.0102977
-0.0165816 -0.00870738 0.0100803
-0.0191169 -0.00762901 0.010685
-0.011264 -0.00320045 -0.00976591
-0.010918 -0.00157551 -0.00979256
-0.0153144 -0.00557711 -0.0106122
-0.0188216 -0.0059473 -0.0109418
-0.0113302 -0.00321443 0.00980417
-0.0109881 -0.00157152 0.00981974
-0.0153609 -0.00560818 0.0106494
-0.0188668 -0.00595862 0.0109797
-0.0108704 0.00160254 -0.00973932
-0.0112112 0.00319538 -0.0097049
-0.0146807 -0.00182887 -0.0107833
-0.0186597 -0.00399458 -0.0111434
-0.014638 1.96004e-05 -0.0108624
-0.0186148 5.29423e-05 -0.0114984
-0.014585 0.00188297 -0.0107197
-0.0186309 0.00403332 -0.0111127
-0.0109156 0.0016366 0.00972575
-0.0112633 0.00322243 0.00971085
-0.0147559 -0.00184898 0.0108094
-0.0187323 -0.00402147 0.0111773
-0.0146669 3.05381e-05 0.0108592
-0.018594 2.23559e-05 0.0114881
-0.0146448 0.00194032 0.0107704
-0.0186522 0.00409018 0.0111793
-0.0126679 0.00649905 -0.00940026
-0.0137197 0.00792497 -0.00928332
-0.0112834 0.00651601 -0.0081144
-0.0113079 0.00814377 -0.00652239
-0.0154755 0.00548673 -0.0105187
-0.0191769 0.00581338 -0.0109478
-0.0113176 0.00657441 0.00813358
-0.0112645 0.00815909 0.00649476
-0.0127299 0.00657964 0.00942042
-0.0137567 0.00802295 0.00927084
-0.0155441 0.00560538 0.0105768
-0.0191924 0.00591102 0.0109587
-0.0137475 0.00916701 -0.00803751
-0.0129132 0.00946707 -0.00647203
-0.0165325 0.00866684 -0.0100252
-0.0192236 0.00757113 -0.0106241
-0.0172692 0.00992826 -0.00993119
-0.0198196 0.0103561 -0.0102797
-0.0110681 0.00980096 -0.00315782
-0.0109741 0.00974827 -0.00157632
-0.0150356 0.00896503 -0.00728411
-0.0188289 0.00754323 -0.00933819
-0.0159479 0.0102677 -0.00732501
-0.0194705 0.0103953 -0.00908487
-0.0154696 0.0105923 -0.00563276
-0.0190206 0.010946 -0.00592996
-0.0149772 0.0106921 -0.0038037
-0.0185778 0.0112931 -0.00205406
-0.0109683 0.00975571 0.00159102
-0.0110333 0.00981189 0.0031509
-0.0145982 0.0107191 1.22353e-05
-0.0184639 0.0114059 1.09362e-05
-0.0129013 0.00947726 0.00640952
-0.0137712 0.00921823 0.00796734
-0.0150091 0.00901946 0.00725691
-0.0188856 0.00760629 0.00936169
-0.0148743 0.0107327 0.00373349
-0.018498 0.0113266 0.00203536
-0.015455 0.0105933 0.00554383
-0.019069 0.010991 0.00582159
-0.0159272 0.0103165 0.00726781
-0.0194418 0.0104386 0.00908397
-0.0165722 0.00879219 0.0100249
-0.0192322 0.00764256 0.0106605
-0.017302 0.0100438 0.0098781
-0.0198041 0.0104087 0.0102784
-0.0224988 -0.0105056 -0.00915471
-0.0225149 -0.0106388 -0.00764025
-0.0224301 -0.00916711 -0.0104184
-0.0223917 -0.00771089 -0.0105438
-0.0250764 -0.0103923 -0.0101918
-0.0276703 -0.00992522 -0.00987621
-0.0254454 -0.0103936 -0.0090051
-0.0289279 -0.0102084 -0.0072689
-0.0225698 -0.0111506 -0.00410163
-0.0226139 -0.0114687 -0.00209857
-0.0225666 -0.00932976 -0.00764306
-0.0224996 -0.00763877 -0.00926223
-0.0225896 -0.00781705 -0.00779397
-0.0224932 -0.00402757 -0.00980587
-0.0258703 -0.0108194 -0.00584795
-0.0292917 -0.0104734 -0.00554554
-0.0265537 -0.00772611 -0.00770031
-0.0308485 -0.00372145 -0.00925493
-0.0225231 -0.0115281 0.00202261
-0.022508 -0.0112952 0.00403704
-0.0225875 -0.00830233 -0.00416766
-0.0224503 -0.00419793 -0.0082393
-0.0224481 -0.00819769 0.00414527
-0.0225133 -0.00415146 0.00822865
-0.0263157 -0.0111445 -0.0020737
-0.0297678 -0.0105712 -0.0038023
-0.0263795 -0.011372 -1.00462e-05
-0.0302949 -0.0108456 6.40737e-06
-0.0264351 -0.0113235 0.00201843
-0.0299935 -0.0107487 0.0038037
-0.0272597 -0.00808743 -0.00401809
-0.0317366 -0.0037651 -0.00760343
-0.0271414 -0.00799438 0.00398965
-0.0318101 -0.00373379 0.00754189
-0.0322278 -0.00750433 7.44203e-06
-0.0414583 -0.00252108 4.74357e-05
-0.0321096 -0.00753685 0.00189165
-0.0412068 -0.00264347 0.00256373
-0.0225485 -0.0106222 0.00761375
-0.0224735 -0.0104659 0.00913687
-0.0225811 -0.00932694 0.00765052
-0.0225046 -0.00758479 0.00930095
-0.0225555 -0.00771837 0.00791604
-0.0225663 -0.00398716 0.0098847
-0.0260728 -0.0107692 0.0058659
-0.0295316 -0.0104088 0.00562558
-0.0265693 -0.00767499 0.00769135
-0.0309155 -0.00366913 0.00921269
-0.0224363 -0.00914553 0.0104137
-0.0223975 -0.0076795 0.0105541
-0.0254472 -0.010342 0.00902769
-0.0290053 -0.0101737 0.00730861
-0.0250849 -0.0103269 0.0102243
-0.0276851 -0.00985811 0.00990649
-0.022476 -0.00417468 -0.0110095
-0.0224879 -0.00215976 -0.0113879
-0.025765 -0.00763182 -0.0105639
-0.028404 -0.00866686 -0.00998816
-0.0261621 -0.00758051 -0.00924589
-0.0298057 -0.00894548 -0.00723978
-0.0259913 -0.00593288 -0.0107594
-0.0294013 -0.00559468 -0.0103985
-0.026149 -0.00408743 -0.0109602
-0.0302088 -0.0019953 -0.0108112
-0.0224934 -0.00413856 0.0110733
-0.0224939 -0.00214029 0.0114234
-0.0261551 -0.00753532 0.00924459
-0.0298344 -0.00889251 0.00726334
-0.0257717 -0.00758261 0.0105694
-0.0283974 -0.00860718 0.00999644
-0.0260214 -0.00589566 0.0107799
-0.0294526 -0.00556045 0.0103955
-0.026184 -0.00404325 0.0109618
-0.0303332 -0.00195242 0.0107561
-0.0224737 0.00208301 -0.0116454
-0.0225567 0.00412753 -0.0112697
-0.0222765 0.00416248 -0.00823591
-0.0223909 0.00825639 -0.00414748
-0.0264462 -6.68244e-06 -0.0115325
-0.0304732 -8.01288e-06 -0.0109812
-0.0270561 0.0040146 -0.00808177
-0.0317384 0.00761809 -0.00379118
-0.0322162 -2.08774e-05 -0.00755862
-0.0414318 6.31632e-06 -0.00247854
-0.0320822 0.00189364 -0.00757514
-0.0412089 0.00258727 -0.00260826
-0.0224508 0.00201983 0.0115291
-0.0225415 0.00404491 0.0111453
-0.0225341 0.00417389 0.00818914
-0.0224005 0.00823595 0.00408517
-0.0224344 0.00400421 0.00986308
-0.0223624 0.00779761 0.00778635
-0.0264289 -4.69641e-06 0.0114473
-0.0304963 1.59438e-05 0.0108997
-0.0272729 0.0040117 0.00801133
-0.0317232 0.00755269 0.00373869
-0.0267467 0.00390393 0.00971986
-0.0306023 0.007372 0.00732665
-0.0323218 -2.52129e-06 0.00746784
-0.0413058 -2.64985e-05 0.00245698
-0.0317481 8.77369e-06 0.00931236
-0.0406566 -2.76149e-05 0.0054382
-0.0322813 0.00185114 0.00755169
-0.0411067 0.00250306 0.00255801
-0.0315205 0.00187534 0.00926342
-0.0403541 0.00250565 0.00551304
-0.0225438 0.0077373 -0.0105525
-0.0224356 0.00916899 -0.0104022
-0.0225094 0.00775687 -0.00927289
-0.0224359 0.00935634 -0.00759255
-0.0224298 0.00798442 -0.00770076
-0.0224488 0.00992927 -0.00398348
-0.0261725 0.00409287 -0.0111554
-0.0302253 0.0019262 -0.0108301
-0.0260443 0.00592244 -0.0109295
-0.0294587 0.00559434 -0.0105653
-0.0257828 0.00754675 -0.0105477
-0.028348 0.00870071 -0.0100078
-0.0261362 0.00756581 -0.00931982
-0.0296924 0.00897242 -0.00725701
-0.0264806 0.0077378 -0.00773268
-0.0308437 0.00928712 -0.00372868
-0.0312277 0.00563066 -0.00746429
-0.0407782 0.00400567 -0.00257561
-0.0225427 0.00762518 0.00929268
-0.0224778 0.00931203 0.00767046
-0.0225396 0.00759632 0.0104839
-0.0224445 0.00908102 0.0103993
-0.0262444 0.00406368 0.0110561
-0.0303404 0.00190208 0.0107681
-0.0261318 0.00595619 0.0108375
-0.0296326 0.00563497 0.0105153
-0.0260913 0.00752259 0.00931652
-0.0297383 0.00898284 0.00726158
-0.0258249 0.00755891 0.0105778
-0.0283465 0.00870769 0.0100164
-0.0305445 0.0055879 0.00911029
-0.0397916 0.00383659 0.00547586
-0.0224148 0.0104576 -0.00913315
-0.0224155 0.0105987 -0.00763461
-0.0250575 0.0103493 -0.0102614
-0.0276353 0.0099621 -0.00990245
-0.0253906 0.0103677 -0.00906057
-0.0289231 0.0102111 -0.00725564
-0.0225181 0.0110885 -0.00411328
-0.0224647 0.0114269 -0.00209268
-0.0259664 0.0108339 -0.0059052
-0.0295289 0.0104556 -0.00562372
-0.022479 0.0114355 0.0020015
-0.0224989 0.0111941 0.00402003
-0.0263685 0.0112014 -0.00207306
-0.0300728 0.0106601 -0.00376795
-0.0263503 0.011415 1.25406e-05
-0.0303187 0.0108295 2.30332e-05
-0.0263413 0.0111678 0.00205532
-0.0300511 0.0106107 0.00378472
-0.0321555 0.00749095 -7.27142e-06
-0.0413081 0.00251327 -5.67825e-08
-0.0315914 0.009323 4.68436e-07
-0.0405743 0.00548436 -1.52374e-06
-0.0224664 0.0106156 0.0076608
-0.0224316 0.0104622 0.00918371
-0.0261114 0.0107873 0.00589936
-0.029572 0.0104519 0.00560552
-0.0254324 0.0103563 0.00907626
-0.0289623 0.0102497 0.00729958
-0.0250892 0.0103203 0.0102767
-0.0276266 0.00995121 0.00989603
-0.0311608 -0.0092454 -0.0080613
-0.0319281 -0.00958743 -0.00647137
-0.0311562 -0.00799641 -0.00933566
-0.0321383 -0.00657897 -0.00953174
-0.0318281 -0.00788708 -0.00784241
-0.0347972 -0.00516726 -0.00649797
-0.0339114 -0.00665507 -0.00818899
-0.0390163 -0.00260778 -0.00629223
-0.0336312 -0.0100911 -0.00318261
-0.0340104 -0.0100685 -0.00154962
-0.0334781 -0.00825928 -0.0066128
-0.0334595 -0.00660469 -0.0082931
-0.0349222 -0.00666114 -0.00672661
-0.0350447 -0.0031417 -0.00846955
-0.0351367 -0.00792813 -0.00537121
-0.0396238 -0.0063348 -0.00464004
-0.0362756 -0.00824097 -0.00373708
-0.0409418 -0.00633086 -0.00221873
-0.0366893 -0.00815994 -0.00246063
-0.0411325 -0.00639273 -0.000766288
-0.0375969 -0.00668858 -0.00542734
-0.0419224 -0.00313476 -0.00477452
-0.0388265 -0.00680069 -0.00380069
-0.0430626 -0.0032027 -0.00226478
-0.0394037 -0.00697883 -0.00257192
-0.0434118 -0.00329109 -0.00071174
-0.0398608 -0.0052805 -0.00394115
-0.0436807 -0.00153526 -0.00225582
-0.0402769 -0.00532885 -0.00249458
-0.0439694 -0.00137395 -0.000699983
-0.0341202 -0.00989225 0.0016756
-0.0338782 -0.0099014 0.00331713
-0.0363564 -0.00676644 -0.00326207
-0.0362107 -0.00325774 -0.00674234
-0.0377019 -0.00852756 -1.15961e-05
-0.0417884 -0.0061373 -3.02421e-05
-0.0395486 -0.00707411 -2.16747e-06
-0.0433758 -0.00342967 -7.08999e-06
-0.0404427 -0.00550688 7.23546e-06
-0.0439548 -0.0014684 -3.67563e-05
-0.0403843 -0.00549976 0.00124341
-0.0438077 -0.00146625 0.00143127
-0.0320336 -0.00950688 0.00652243
-0.0312041 -0.00919382 0.00807613
-0.0334722 -0.00817042 0.00662552
-0.0334538 -0.00654178 0.00825037
-0.0348407 -0.00661836 0.00669314
-0.0350948 -0.0031848 0.00838797
-0.0367899 -0.00822057 0.00248852
-0.0411203 -0.006475 0.000718704
-0.0363237 -0.00834178 0.00376331