# vtk DataFile Version 3.0
vtk output at time 0.7
ASCII
DATASET UNSTRUCTURED_GRID
POINTS 1524 float
0 0 0 0 0 0.05 0 0 0.1 
0 0 0.15 0 0 0.2 0 0.05 0 
0 0.05 0.05 0 0.05 0.1 0 0.05 0.15 
0 0.05 0.2 0 0.1 0 0 0.1 0.05 
0 0.1 0.1 0 0.1 0.15 0 0.1 0.2 
0 0.15 0 0 0.15 0.05 0 0.15 0.1 
0 0.15 0.15 0 0.15 0.2 0 0.2 0 
0 0.2 0.05 0 0.2 0.1 0 0.2 0.15 
0 0.2 0.2 0.0389889 -0.0073357 -0.00780515 0.0409794 -0.00794274 0.046002 
0.0415969 -0.00794083 0.100019 0.0410256 -0.00795015 0.153997 0.0390217 -0.0073698 0.207777 
0.0409799 0.0460646 -0.00798266 0.0409614 0.0460521 0.208012 0.041696 0.100011 -0.00819752 
0.0417147 0.100029 0.208159 0.0410015 0.153915 -0.00792435 0.0409638 0.153944 0.207961 
0.0390489 0.20733 -0.00777211 0.0409902 0.207974 0.0459931 0.0416059 0.207964 0.100004 
0.0410158 0.207984 0.15398 0.0390363 0.207398 0.207727 0.0825532 -0.0085072 -0.00850813 
0.0825077 -0.00882289 0.0451944 0.0824516 -0.00953367 0.0999877 0.0823408 -0.00891672 0.154752 
0.0825567 -0.00851925 0.208458 0.0826154 0.0451532 -0.00871432 0.082608 0.0451676 0.208737 
0.0824581 0.100031 -0.00965192 0.0825587 0.0999656 0.209582 0.0822361 0.154824 -0.00879956 
0.0822632 0.154723 0.208726 0.0825328 0.208456 -0.00849964 0.0825132 0.208768 0.0451654 
0.0825752 0.209563 0.0999937 0.0824395 0.208905 0.154788 0.0825621 0.208465 0.208523 
0.125962 -0.00735987 -0.00777646 0.124187 -0.00814427 0.0460363 0.12336 -0.0082566 0.100014 
0.124022 -0.00806457 0.154032 0.125946 -0.00734338 0.207772 0.124259 0.046046 -0.00814486 
0.124214 0.0460671 0.208062 0.123188 0.100051 -0.0083272 0.123172 0.100072 0.208244 
0.124088 0.153981 -0.00797885 0.124018 0.15396 0.207945 0.126011 0.207374 -0.00776778 
0.124194 0.208113 0.0459776 0.123338 0.208125 0.100033 0.124045 0.208192 0.153906 
0.126014 0.207393 0.207737 0.165 0 0 0.165 0 0.05 
0.165 0 0.1 0.165 0 0.15 0.165 0 0.2 
0.165 0.05 0 0.165 0.05 0.05 0.165 0.05 0.1 
0.165 0.05 0.15 0.165 0.05 0.2 0.165 0.1 0 
0.165 0.1 0.05 0.165 0.1 0.1 0.165 0.1 0.15 
0.165 0.1 0.2 0.165 0.15 0 0.165 0.15 0.05 
0.165 0.15 0.1 0.165 0.15 0.15 0.165 0.15 0.2 
0.165 0.2 0 0.165 0.2 0.05 0.165 0.2 0.1 
0.165 0.2 0.15 0.165 0.2 0.2 0 0 0.0166667 
0 0 0.0333333 0 0.0166667 0 0 0.0333333 0 
0.00981655 -0.00432481 -0.00555495 0.0238614 -0.00646355 -0.00652644 0.0128991 -0.00515208 0.0129003 
0.0260978 -0.00649173 0.0289418 0 0 0.0666667 0 0 0.0833333 
0 0.0166667 0.0333333 0 0.0333333 0.0166667 0 0.0166667 0.05 
0 0.0333333 0.05 0 0.0166667 0.0666667 0 0.0333333 0.0833333 
0.013753 -0.00526464 0.0481652 0.0269523 -0.00679452 0.046929 0 0 0.116667 
0 0 0.133333 0 0.0166667 0.1 0 0.0333333 0.1 
0.0138436 -0.0053469 0.0826965 0.027224 -0.00670216 0.0646721 0.0142083 -0.00507377 0.100042 
0.0277699 -0.00689962 0.100035 0.0138606 -0.00530909 0.117381 0.0272478 -0.00666714 0.135373 
0 0 0.166667 0 0 0.183333 0 0.0166667 0.133333 
0 0.0333333 0.116667 0 0.0166667 0.15 0 0.0333333 0.15 
0 0.0166667 0.166667 0 0.0333333 0.183333 0.0137848 -0.00519861 0.151838 
0.02698 -0.00674681 0.153098 0 0.0166667 0.2 0 0.0333333 0.2 
0.012917 -0.00514001 0.187081 0.0261287 -0.00646665 0.171059 0.00983133 -0.00433215 0.205529 
0.0238847 -0.00647463 0.206505 0 0.05 0.0166667 0 0.05 0.0333333 
0 0.0666667 0 0 0.0833333 0 0 0.0666667 0.0166667 
0 0.0833333 0.0333333 0.0123446 0.0310992 -0.00515864 0.025282 0.0112803 -0.00673215 
0.0144742 0.0306803 0.0128556 0.0278982 0.0112214 0.0289371 0.0137141 0.0483678 -0.00511765 
0.027226 0.0470491 -0.00708111 0.0139557 0.0659206 -0.00530341 0.027474 0.0824185 -0.00691213 
0 0.05 0.0666667 0 0.05 0.0833333 0 0.0666667 0.05 
0 0.0833333 0.05 0.0151287 0.0305806 0.0481948 0.0286012 0.0111113 0.0469245 
0.0149893 0.0481438 0.0305604 0.0284208 0.0469295 0.0110109 0.0153232 0.0655249 0.0305282 
0.0291077 0.0823537 0.0110246 0.0291618 0.0290456 0.0468229 0.0556334 0.00918947 0.0454686 
0.0295786 0.0289605 0.0646099 0.0561229 0.00905072 0.0818124 0.0292659 0.046837 0.0289082 
0.0556373 0.0455432 0.00913304 0.0296415 0.0645357 0.0289137 0.0561277 0.0818626 0.00905552 
0 0.05 0.116667 0 0.05 0.133333 0 0.0666667 0.0833333 
0 0.0833333 0.0666667 0 0.0666667 0.1 0 0.0833333 0.1 
0 0.0666667 0.116667 0 0.0833333 0.133333 0.0153469 0.0305738 0.0828174 
0.0289336 0.0110319 0.0646342 0.0153678 0.0305355 0.100041 0.0289844 0.0110779 0.100028 
0.0153878 0.0305875 0.117282 0.0289979 0.0110303 0.135443 0.0298568 0.0289661 0.10001 
0.0563448 0.00900349 0.100039 0.0298032 0.0289212 0.11772 0.0560387 0.00912202 0.136328 
0.030211 0.0645224 0.0645424 0.0566738 0.0818325 0.027183 0 0.05 0.166667 
0 0.05 0.183333 0 0.0666667 0.15 0 0.0833333 0.15 
0.0151829 0.0306331 0.151904 0.028702 0.0111535 0.153133 0.015016 0.0481587 0.169463 
0.0284255 0.0469335 0.189022 0.0152941 0.0655179 0.169484 0.0290654 0.0823606 0.18898 
0.0294406 0.0290144 0.153266 0.0557363 0.009246 0.154465 0.0292934 0.0468579 0.171123 
0.0556018 0.0455155 0.190888 0.0295854 0.0645694 0.1711 0.0561071 0.0818098 0.190968 
0 0.0666667 0.183333 0 0.0833333 0.166667 0 0.0666667 0.2 
0 0.0833333 0.2 0.0144852 0.0306765 0.187174 0.0279563 0.0112401 0.171074 
0.0123441 0.0310787 0.205183 0.0253031 0.0112604 0.206731 0.013704 0.0483559 0.205131 
0.0272124 0.0470406 0.207105 0.0139372 0.0659209 0.205318 0.0274518 0.0824399 0.206918 
0 0.1 0.0166667 0 0.1 0.0333333 0 0.116667 0 
0 0.133333 0 0.0137034 0.100052 -0.00541586 0.0271941 0.0999385 -0.00659907 
0 0.1 0.0666667 0 0.1 0.0833333 0 0.116667 0.0333333 
0 0.133333 0.0166667 0 0.116667 0.05 0 0.133333 0.05 
0 0.116667 0.0666667 0 0.133333 0.0833333 0.0153913 0.100008 0.0305353 
0.0292099 0.0999953 0.0109537 0.015343 0.11729 0.0305476 0.0289004 0.135378 0.0110377 
0.0299198 0.100002 0.0288377 0.0563325 0.0999924 0.00902487 0.0298078 0.117683 0.0288378 
0.0560053 0.136278 0.00914161 0 0.1 0.116667 0 0.1 0.133333 
0 0.116667 0.1 0 0.133333 0.1 0.0303504 0.0645899 0.0999872 
0.0566604 0.027208 0.0999781 0.030253 0.0646795 0.117676 0.056523 0.0272128 0.136327 
0.0303042 0.100003 0.064607 0.0567108 0.100005 0.0272273 0.0305375 0.0999836 0.135406 
0.0566865 0.0999797 0.172837 0.0302499 0.117677 0.0646466 0.0565328 0.136272 0.0272387 
0.0303467 0.11765 0.135396 0.0564997 0.136432 0.172809 0.0304562 0.135405 0.0999939 
0.0566694 0.172817 0.099956 0.0303068 0.135354 0.117636 0.0565015 0.17281 0.136346 
0.0577286 0.0999949 0.0999781 0.107331 0.100017 0.100008 0 0.1 0.166667 
0 0.1 0.183333 0 0.116667 0.133333 0 0.133333 0.116667 
0 0.116667 0.15 0 0.133333 0.15 0 0.116667 0.166667 
0 0.133333 0.183333 0.0154079 0.0999973 0.169376 0.0292246 0.100004 0.188966 
0.0153654 0.117229 0.169374 0.0289065 0.135329 0.188942 0.0299936 0.0645348 0.153265 
0.0562419 0.0272704 0.154524 0.0299259 0.0999631 0.171059 0.0563608 0.100004 0.191031 
0.0298264 0.117662 0.171061 0.0560035 0.136366 0.190912 0.0299719 0.135399 0.153213 
0.056257 0.172741 0.154517 0 0.116667 0.2 0 0.133333 0.2 
0.0137161 0.100066 0.205396 0.0272129 0.099956 0.206565 0 0.15 0.0166667 
0 0.15 0.0333333 0 0.166667 0 0 0.183333 0 
0 0.166667 0.0166667 0 0.183333 0.0333333 0.0137811 0.134512 -0.00526291 
0.0273301 0.117597 -0.00679795 0.0140429 0.151624 -0.00505764 0.0274806 0.152969 -0.00702037 
0.0124815 0.168798 -0.0051076 0.0253264 0.188726 -0.00668392 0.0145017 0.16923 0.0128538 
0.0279337 0.188838 0.0289716 0 0.15 0.0666667 0 0.15 0.0833333 
0 0.166667 0.05 0 0.183333 0.05 0.0151589 0.151891 0.0305693 
0.0286863 0.153107 0.0110804 0.0151496 0.169422 0.0482059 0.0286291 0.188918 0.046942 
0.0294126 0.153213 0.0289699 0.0556828 0.15439 0.00924612 0.0293003 0.17103 0.0468299 
0.0556735 0.190811 0.0454883 0.0296399 0.171074 0.0645983 0.0561246 0.190925 0.0817997 
0 0.15 0.116667 0 0.15 0.133333 0 0.166667 0.0833333 
0 0.183333 0.0666667 0 0.166667 0.1 0 0.183333 0.1 
0 0.166667 0.116667 0 0.183333 0.133333 0.0153621 0.169424 0.0828093 
0.0289577 0.188996 0.0646293 0.0153851 0.169472 0.100016 0.0289933 0.188944 0.100011 
0.015381 0.169426 0.117242 0.0289802 0.189008 0.135419 0.0299966 0.153241 0.0645296 
0.0562416 0.154453 0.0272875 0.0299022 0.171062 0.100001 0.0563369 0.191002 0.100026 
0.0297884 0.171095 0.117693 0.0560114 0.190901 0.13634 0 0.15 0.166667 
0 0.15 0.183333 0 0.166667 0.15 0 0.183333 0.15 
0.0151461 0.151823 0.169433 0.0286496 0.153073 0.188951 0.0151776 0.169364 0.151867 
0.0286791 0.188877 0.153105 0.0293689 0.153148 0.171057 0.0556288 0.154507 0.190819 
0.0294905 0.171038 0.153207 0.0557367 0.190781 0.154456 0 0.166667 0.183333 
0 0.183333 0.166667 0 0.166667 0.2 0 0.183333 0.2 
0.0137809 0.134484 0.205255 0.0273333 0.117589 0.206754 0.0140209 0.151603 0.205075 
0.0274446 0.152957 0.207043 0.0145087 0.169208 0.187156 0.0279634 0.188798 0.171032 
0.0124773 0.168791 0.205116 0.0253245 0.188736 0.20668 0 0.2 0.0166667 
0 0.2 0.0333333 0.00982896 0.20424 -0.00555113 0.0238617 0.206459 -0.00649032 
0.01292 0.205095 0.0128952 0.0260856 0.206531 0.0289532 0 0.2 0.0666667 
0 0.2 0.0833333 0.0137417 0.205257 0.0481667 0.0269239 0.206811 0.0469551 
0 0.2 0.116667 0 0.2 0.133333 0.0138444 0.205347 0.0826829 
0.0272267 0.206718 0.0646797 0.0142011 0.205079 0.10002 0.0277683 0.20692 0.100015 
0.013846 0.205326 0.117359 0.0272209 0.206703 0.135348 0 0.2 0.166667 
0 0.2 0.183333 0.013758 0.205213 0.151841 0.0269322 0.206775 0.153063 
0.0129255 0.205079 0.187095 0.0260923 0.2065 0.171038 0.00982546 0.204235 0.205538 
0.0238495 0.206466 0.20647 0.0396146 -0.00749811 0.0100615 0.0402144 -0.00772056 0.0280728 
0.0396491 0.0102287 -0.00767857 0.0403558 0.0280883 -0.00776628 0.053447 -0.00811449 -0.0081604 
0.068029 -0.00846228 -0.00842978 0.054013 0.00960825 -0.00825148 0.0685661 0.0271731 -0.0087079 
0.0414624 -0.00800574 0.0641214 0.0415211 -0.00798554 0.0820632 0.0414024 0.0100966 0.0280017 
0.0413676 0.0280982 0.00996581 0.0543883 -0.00838142 0.0273631 0.0682482 -0.00849477 0.00922783 
0.0547343 -0.00863097 0.045448 0.068588 -0.00894858 0.0452088 0.0550584 -0.00876554 0.0635788 
0.0688431 -0.00928243 0.0816573 0.0550864 0.00937843 0.0273813 0.0687998 0.0271853 0.00902606 
[...]
POINT_DATA 1524
VECTORS displacement float
0 0 0
0 0 0
0 0 0
0 0 0
0 0 0
0 0 0
0 0 0
0 0 0
0 0 0
0 0 0
0 0 0
0 0 0
0 0 0
0 0 0
0 0 0
0 0 0
0 0 0
0 0 0
0 0 0
0 0 0
0 0 0
0 0 0
0 0 0
0 0 0
0 0 0
-0.0110111 -0.0073357 -0.00780515
-0.00902057 -0.00794274 -0.003998
-0.00840308 -0.00794083 1.94748e-05
-0.00897436 -0.00795015 0.00399711
-0.0109783 -0.0073698 0.00777719
-0.00902015 -0.00393542 -0.00798266
-0.00903859 -0.00394787 0.00801211
-0.00830395 1.08497e-05 -0.00819752
-0.00828532 2.88358e-05 0.00815898
-0.00899848 0.00391504 -0.00792435
-0.0090362 0.00394442 0.00796063
-0.0109511 0.00732968 -0.00777211
-0.00900978 0.00797412 -0.00400687
-0.00839407 0.00796376 4.34313e-06
-0.00898415 0.00798437 0.00398023
-0.0109637 0.00739805 0.00772724
-0.0174468 -0.0085072 -0.00850813
-0.0174923 -0.00882289 -0.00480558
-0.0175484 -0.00953367 -1.22691e-05
-0.0176592 -0.00891672 0.00475242
-0.0174434 -0.00851925 0.00845848
-0.0173846 -0.0048468 -0.00871432
-0.017392 -0.00483237 0.00873737
-0.0175419 3.06962e-05 -0.00965192
-0.0174413 -3.44545e-05 0.0095817
-0.0177639 0.00482381 -0.00879956
-0.0177368 0.00472347 0.00872579
-0.0174672 0.00845595 -0.00849964
-0.0174868 0.00876755 -0.00483463
-0.0174248 0.00956264 -6.27624e-06
-0.0175605 0.0089053 0.00478779
-0.0174379 0.00846535 0.00852304
-0.0240377 -0.00735987 -0.00777646
-0.0258132 -0.00814427 -0.00396367
-0.02664 -0.0082566 1.37862e-05
-0.0259782 -0.00806457 0.00403183
-0.0240538 -0.00734338 0.00777225
-0.0257412 -0.00395402 -0.00814486
-0.0257862 -0.00393288 0.00806181
-0.0268117 5.08871e-05 -0.0083272
-0.0268284 7.17826e-05 0.00824365
-0.0259116 0.0039806 -0.00797885
-0.0259823 0.00396008 0.00794513
-0.0239889 0.00737422 -0.00776778
-0.0258059 0.00811253 -0.00402236
-0.0266618 0.00812467 3.31231e-05
-0.0259551 0.00819207 0.00390637
-0.0239859 0.00739291 0.00773717
-0.035 0 0
-0.035 0 0
-0.035 0 0
-0.035 0 0
-0.035 0 0
-0.035 0 0
-0.035 0 0
-0.035 0 0
-0.035 0 0
-0.035 0 0
-0.035 0 0
-0.035 0 0
-0.035 0 0
-0.035 0 0
-0.035 0 0
-0.035 0 0
-0.035 0 0
-0.035 0 0
-0.035 0 0
-0.035 0 0
-0.035 0 0
-0.035 0 0
-0.035 0 0
-0.035 0 0
-0.035 0 0
0 0 0
0 0 0
0 0 0
0 0 0
-0.00685012 -0.00432481 -0.00555495
-0.00947195 -0.00646355 -0.00652644
-0.00376761 -0.00515208 -0.00376635
-0.00723548 -0.00649173 -0.00439156
0 0 0
0 0 0
0 0 0
0 0 0
0 0 0
0 0 0
0 0 0
0 0 0
-0.0029137 -0.00526464 -0.00183477
-0.00638101 -0.00679452 -0.00307104
0 0 0
0 0 0
0 0 0
0 0 0
-0.00282306 -0.0053469 -0.000636814
-0.00610931 -0.00670216 -0.00199462
-0.00245834 -0.00507377 4.22834e-05
-0.00556344 -0.00689962 3.46418e-05
-0.00280604 -0.00530909 0.000714318
-0.00608557 -0.00666714 0.00204003
0 0 0
0 0 0
0 0 0
0 0 0
0 0 0
0 0 0
0 0 0
0 0 0
-0.00288187 -0.00519861 0.00183814
-0.00635332 -0.00674681 0.00309764
0 0 0
0 0 0
-0.00374965 -0.00514001 0.00374727
-0.00720467 -0.00646665 0.00439208
-0.00683534 -0.00433215 0.00552907
-0.00944865 -0.00647463 0.00650533
0 0 0
0 0 0
0 0 0
0 0 0
0 0 0
0 0 0
-0.00432209 -0.00223411 -0.00515864
-0.00805131 -0.00538635 -0.00673215
-0.0021925 -0.00265304 -0.00381109
-0.00543508 -0.00544524 -0.0043962
-0.00295257 -0.0016322 -0.00511765
-0.00610734 -0.00295093 -0.00708111
-0.00271096 -0.000746061 -0.00530341
-0.00585936 -0.000914878 -0.00691213
0 0 0
0 0 0
0 0 0
0 0 0
-0.00153801 -0.00275278 -0.00180524
-0.00473215 -0.00555535 -0.00307552
-0.00167738 -0.00185623 -0.00277289
-0.00491254 -0.00307046 -0.00565574
-0.00134343 -0.00114179 -0.00280511
-0.00422565 -0.000979645 -0.00564205
-0.00417149 -0.00428778 -0.00317707
-0.0110332 -0.0074772 -0.00453136
-0.00375474 -0.00437281 -0.00205681
-0.0105437 -0.00761594 -0.00152089
-0.00406742 -0.00316295 -0.0044251
-0.0110293 -0.00445679 -0.00753363
-0.00369181 -0.00213093 -0.00441968
-0.010539 -0.0014707 -0.00761115
0 0 0
0 0 0
0 0 0
0 0 0
0 0 0
0 0 0
0 0 0
0 0 0
-0.00131975 -0.00275956 -0.0005159
-0.00439972 -0.00563478 -0.00203246
-0.0012989 -0.00279779 4.0697e-05
-0.00434896 -0.00558878 2.75152e-05
-0.00127887 -0.00274582 0.000615654
-0.00433544 -0.00563639 0.00211017
-0.00347648 -0.0043672 9.99642e-06
-0.0103219 -0.00766318 3.9421e-05
-0.00353016 -0.00441218 0.00105374
-0.010628 -0.00754465 0.00299491
-0.00312236 -0.00214424 -0.00212429
-0.00999282 -0.0015008 -0.00615033
0 0 0
0 0 0
0 0 0
0 0 0
-0.00148379 -0.00270019 0.00190433
-0.00463137 -0.00551318 0.00313303
-0.00165066 -0.00184128 0.00279611
-0.00490784 -0.00306653 0.00568907
-0.00137259 -0.00114874 0.00281739
-0.00426788 -0.000972726 0.00564692
-0.00389276 -0.00431897 0.00326628
-0.0109304 -0.00742067 0.00446486
-0.00403992 -0.00314207 0.00445606
-0.0110649 -0.00448455 0.00755462
-0.00374794 -0.00209724 0.00443333
-0.0105596 -0.00152354 0.00763443
0 0 0
0 0 0
0 0 0
0 0 0
-0.00218149 -0.0026568 0.00384074
-0.00537707 -0.00542661 0.00440705
-0.00432255 -0.00225459 0.0051825
-0.00803027 -0.00540627 0.00673096
-0.00296265 -0.00164407 0.0051311
-0.00612093 -0.00295943 0.00710543
-0.0027295 -0.000745821 0.00531776
-0.0058815 -0.00089345 0.00691839
0 0 0
0 0 0
0 0 0
0 0 0
-0.00296329 5.24172e-05 -0.00541586
-0.0061392 -6.14717e-05 -0.00659907
0 0 0
0 0 0
0 0 0
0 0 0
0 0 0
0 0 0
0 0 0
0 0 0
-0.0012754 8.23431e-06 -0.00279803
-0.0041234 -4.67515e-06 -0.00571296
-0.00132372 0.000623752 -0.00278572
-0.00443291 0.00204421 -0.00562901
-0.00341356 2.36532e-06 -0.00449559
-0.0103341 -7.64371e-06 -0.0076418
-0.00352557 0.00101635 -0.00449553
-0.0106614 0.0029442 -0.00752505
0 0 0
0 0 0
0 0 0
0 0 0
-0.00298289 -0.00207675 -1.28349e-05
-0.0100062 -0.00612532 -2.19177e-05
-0.0030803 -0.00198715 0.00100939
-0.0101437 -0.00612057 0.00299317
-0.00302918 3.35827e-06 -0.00205969
-0.00995582 5.07578e-06 -0.00610602
-0.00279585 -1.63908e-05 0.00207223
-0.00998017 -2.03156e-05 0.00617041
-0.00308344 0.0010103 -0.00202009
-0.0101338 0.00293885 -0.00609465
-0.00298661 0.000983312 0.00206221
-0.010167 0.00309837 0.00614202
-0.00287714 0.00207182 -6.10386e-06
-0.0099973 0.00614999 -4.40264e-05
-0.00302657 0.00202076 0.000969355
-0.0101652 0.00614316 0.00301291
-0.00893806 -5.11143e-06 -2.18673e-05
-0.0260019 1.65406e-05 7.88457e-06
0 0 0
0 0 0
0 0 0
0 0 0
0 0 0
0 0 0
0 0 0
0 0 0
-0.00125873 -2.67885e-06 0.00270902
-0.00410872 4.26375e-06 0.00563298
-0.00130123 0.00056253 0.00270764
-0.00442684 0.0019957 0.00560898
-0.00333977 -0.00213192 0.00326503
-0.0104247 -0.00606293 0.00452387
-0.00340743 -3.69162e-05 0.0043926
-0.0103058 4.47376e-06 0.00769721
-0.00350696 0.000995164 0.00439438
-0.0106631 0.00303248 0.00757846
-0.00336143 0.00206609 0.00321336
-0.0104096 0.00607391 0.00451709
0 0 0
0 0 0
-0.00295054 6.64946e-05 0.00539622
-0.00612041 -4.39692e-05 0.00656473
0 0 0
0 0 0
0 0 0
0 0 0
0 0 0
0 0 0
-0.00288553 0.00117831 -0.00526291
-0.00600321 0.00093047 -0.00679795
-0.00262381 0.00162421 -0.00505764
-0.00585272 0.00296935 -0.00702037
-0.0041852 0.0021315 -0.0051076
-0.00800696 0.00539286 -0.00668392
-0.00216495 0.00256327 -0.00381284
-0.00539962 0.00550441 -0.00436172
0 0 0
0 0 0
0 0 0
0 0 0
-0.00150772 0.00189133 -0.00276403
-0.00464704 0.00310735 -0.00558626
-0.00151704 0.00275484 -0.00179411
-0.0047042 0.00558506 -0.00305802
-0.00392073 0.00321268 -0.00436346
-0.0109839 0.00438984 -0.00742055
-0.00403307 0.00436288 -0.00317009
-0.0109932 0.00747806 -0.00451172
-0.00369339 0.00440777 -0.0020684
-0.0105421 0.00759151 -0.00153366
0 0 0
0 0 0
0 0 0
0 0 0
0 0 0
0 0 0
0 0 0
0 0 0
-0.00130459 0.00275718 -0.000524076
-0.0043756 0.0056625 -0.00203741
-0.00128158 0.00280491 1.59375e-05
-0.00434007 0.00561076 1.07455e-05
-0.00128565 0.00275945 0.000575145
-0.0043531 0.00567474 0.00208615
-0.00333669 0.00324079 -0.00213707
-0.010425 0.00445277 -0.00604579
-0.00343114 0.00439531 7.67039e-07
-0.0103298 0.00766903 2.6393e-05
-0.00354494 0.00442784 0.00102657
-0.0106553 0.00756754 0.00300641
0 0 0
0 0 0
0 0 0
0 0 0
-0.00152059 0.00182338 0.00276674
-0.00468377 0.00307288 0.00561723
-0.00148908 0.00269768 0.00186708
-0.00465423 0.00554394 0.0031046
-0.00396448 0.00314771 0.00439067
-0.0110378 0.0045065 0.00748575
-0.00384282 0.00437174 0.00320687
-0.0109299 0.00744799 0.00445554
0 0 0
0 0 0
0 0 0
0 0 0
-0.00288581 0.00115059 0.00525549
-0.00600002 0.000922808 0.00675437
-0.00264573 0.00160306 0.00507482
-0.00588869 0.00295708 0.00704271
-0.00215792 0.00254092 0.0038229
-0.00536989 0.00546433 0.00436553
-0.00418938 0.0021239 0.00511647
-0.00800881 0.00540232 0.0066803
0 0 0
0 0 0
-0.00683771 0.00423961 -0.00555113
-0.00947161 0.00645878 -0.00649032
-0.00374666 0.00509528 -0.0037715
-0.0072477 0.00653131 -0.00438008
0 0 0
0 0 0
-0.00292498 0.00525706 -0.0018333
-0.00640945 0.00681058 -0.00304491
0 0 0
0 0 0
-0.00282227 0.00534727 -0.00065047
-0.00610666 0.00671776 -0.00198695
-0.00246558 0.00507925 1.97578e-05
-0.005565 0.00691953 1.53542e-05
-0.00282068 0.00532617 0.000692364
-0.00611241 0.00670327 0.0020144
0 0 0
0 0 0
-0.0029087 0.00521268 0.00184104
-0.00640114 0.00677522 0.00306307
-0.00374115 0.00507895 0.00376127
-0.00724101 0.00649995 0.00437148
-0.00684121 0.00423524 0.00553816
-0.00948386 0.00646583 0.00646984
-0.0103854 -0.00749811 -0.00660512
-0.00978559 -0.00772056 -0.00526053
-0.0103509 -0.00643797 -0.00767857
-0.00964424 -0.00524504 -0.00776628
-0.0132197 -0.00811449 -0.0081604
-0.0153043 -0.00846228 -0.00842978
-0.0126536 -0.00705842 -0.00825148
-0.0147673 -0.00616026 -0.0087079
-0.00853764 -0.00800574 -0.00254529
-0.00847886 -0.00798554 -0.00127014
-0.00859757 -0.00657009 -0.00533165
-0.00863242 -0.00523508 -0.00670085
-0.0122784 -0.00838142 -0.00597023
-0.0150851 -0.00849477 -0.00743883
-0.0119324 -0.00863097 -0.00455198
-0.0147453 -0.00894858 -0.0047912
-0.0116082 -0.00876554 -0.00308787
-0.0144902 -0.00928243 -0.00167608
-0.0115803 -0.00728823 -0.00595206
-0.0145335 -0.00614805 -0.00764061
-0.00845386 -0.00798848 0.00129906
-0.00848558 -0.00800369 0.00255455
-0.0113127 -0.00879007 1.63186e-05
-0.0143742 -0.00933105 1.04863e-05
-0.00975441 -0.00771916 0.005245
-0.0103606 -0.00750887 0.00658165
-0.0085231 -0.00657161 0.00532109
-0.00860287 -0.0052499 0.00672704
-0.0115024 -0.00875527 0.00301187
-0.0143914 -0.00927302 0.00164777
-0.0119552 -0.00862246 0.00449566
-0.0148734 -0.00893795 0.00469557
-0.0122444 -0.00838835 0.0059279
-0.0150574 -0.00849623 0.00737755
-0.0115244 -0.00729189 0.00590964
-0.0145403 -0.00614804 0.00763025
-0.0103208 -0.0064719 0.00767305
-0.00963388 -0.00527474 0.00779091
-0.0131861 -0.00815781 0.00811487
-0.0152785 -0.00849113 0.00837243
-0.0126251 -0.00710174 0.00823709
-0.0147579 -0.00618482 0.00870967
-0.00864394 -0.00259762 -0.00802786
-0.00845231 -0.00128146 -0.00805655
-0.0117659 -0.00451057 -0.00868526
-0.0145713 -0.00479223 -0.0089273
-0.00867582 -0.00259454 0.00805043
-0.00847666 -0.00126666 0.00806259
-0.0117931 -0.00453622 0.00871264
-0.0145992 -0.00481569 0.00895152
-0.00844453 0.00127893 -0.00802686
-0.00864667 0.00257857 -0.00798984
-0.011383 -0.00147389 -0.00884211
-0.0144621 -0.00320462 -0.00909616
-0.0113705 1.24882e-05 -0.00892654
-0.0144789 4.29643e-05 -0.00939458
-0.0113342 0.00151494 -0.00879769
-0.0144734 0.00323565 -0.00906795
-0.00844621 0.00129447 0.00799367
-0.00865326 0.00258328 0.00798142
-0.0114067 -0.00148784 0.00885378
-0.0145039 -0.0032401 0.00912103
-0.0113497 2.15561e-05 0.00890528
-0.0144245 1.63288e-05 0.00937998
-0.0113395 0.00155167 0.00882373
-0.0144644 0.00327971 0.00912305
-0.0095987 0.0052845 -0.00771784
-0.010318 0.00647255 -0.00762211
-0.00854082 0.00528283 -0.00663543
-0.00852835 0.00664806 -0.00529348
-0.0119147 0.00442478 -0.00863951
-0.0148466 0.00465844 -0.00895234
-0.00854984 0.00530955 0.00665295
-0.00850041 0.00664018 0.00527118
-0.00962344 0.00533011 0.00773421
-0.0103318 0.00652914 0.00761427
-0.0119381 0.00451478 0.00868488
-0.0148501 0.00475134 0.00895677
-0.0103329 0.00752806 -0.00658936
-0.0097456 0.00778045 -0.00526255
-0.012616 0.00704633 -0.00822104
-0.0148515 0.0060897 -0.00868488
-0.0131502 0.00811523 -0.00814219
-0.0152672 0.00842225 -0.00841814
-0.0085108 0.00803314 -0.00255426
-0.00845321 0.00800789 -0.00128196
-0.0115181 0.00730464 -0.00591612
-0.0145696 0.00607881 -0.00761203
-0.0121958 0.00839787 -0.00595724
-0.0150175 0.00845727 -0.0074136
-0.01188 0.00867438 -0.0045628
-0.0147148 0.00893802 -0.00480919
-0.0115569 0.00876452 -0.00308205
-0.0144312 0.00923514 -0.00166777
-0.00845661 0.00802075 0.00128426
-0.00850053 0.00804935 0.00254206
-0.0112998 0.00879172 4.74456e-06
-0.0143385 0.0093196 4.68097e-06
-0.0097478 0.00777592 0.00521542
-0.0103542 0.00755095 0.00654009
-0.011505 0.00733874 0.00588025
-0.0145974 0.00614766 0.00761662
-0.0114983 0.00878457 0.00300836
-0.014369 0.00924593 0.00163988
-0.0118906 0.00866842 0.00447842
-0.0147591 0.00896969 0.00470203
-0.0121977 0.00842741 0.00589541
-0.0150082 0.00850727 0.00738002
-0.012629 0.00714468 0.0082114
-0.0148433 0.00617267 0.00870445
-0.0131763 0.00820694 0.00808675
-0.0152621 0.00849144 0.00838414
-0.0174863 -0.00856386 -0.00745082
-0.0174933 -0.00867515 -0.00619393
-0.0174474 -0.00743276 -0.00850947
-0.0174225 -0.00622536 -0.00860198
-0.0196482 -0.00847266 -0.00833651
-0.0218038 -0.00811854 -0.00809302
-0.0199123 -0.00847152 -0.00733527
-0.0227217 -0.00834472 -0.00590093
-0.0175396 -0.00907435 -0.00328949
-0.0175846 -0.00932059 -0.00167129
-0.0175412 -0.00756804 -0.00619313
-0.0174995 -0.00616594 -0.00752979
-0.0175656 -0.00630491 -0.00630232
-0.0174994 -0.00321453 -0.00794071
-0.0202121 -0.00881722 -0.0047233
-0.0229666 -0.00856536 -0.00448527
-0.0207257 -0.00624005 -0.00623893
-0.0240616 -0.00298753 -0.0075619
-0.0175301 -0.00934936 0.00161943
-0.0175161 -0.00916312 0.00323858
-0.0175551 -0.00668825 -0.00334483
-0.0174697 -0.00335155 -0.00664916
-0.0174652 -0.0066193 0.00331782
-0.0175105 -0.00333645 0.00663716
-0.0204983 -0.00909053 -0.00166364
-0.0232679 -0.00865641 -0.0030707
-0.0205248 -0.00929276 -8.31371e-07
-0.0235934 -0.00890673 3.89093e-06
-0.0205897 -0.00923162 0.00162185
-0.0234408 -0.00880471 0.00305764
-0.0211805 -0.00655398 -0.00323136
-0.0246765 -0.00303551 -0.00619413
-0.0211004 -0.00648651 0.0032
-0.0247365 -0.00301712 0.00614701
-0.0249737 -0.00611204 5.62361e-07
-0.0321339 -0.00207769 3.49749e-05
-0.0249138 -0.00614181 0.00151928
-0.0319868 -0.00215965 0.00210024
-0.0175206 -0.00865819 0.00613977
-0.0174731 -0.00853893 0.00739908
-0.017548 -0.00756515 0.00616433
-0.0175011 -0.00613422 0.00753105
-0.0175422 -0.00623422 0.00637833
-0.0175502 -0.0032015 0.00800045
-0.0203429 -0.0087859 0.00472205
-0.0231265 -0.00852253 0.00453392
-0.0207243 -0.00620548 0.0062209
-0.0241065 -0.00295265 0.00753241
-0.0174554 -0.00743305 0.00847533
-0.0174267 -0.00621882 0.00858586
-0.0199163 -0.00844258 0.00732664
-0.0227698 -0.00832724 0.0059184
-0.0196646 -0.00844089 0.00833385
-0.0218219 -0.00808311 0.0080999
-0.0174846 -0.003338 -0.00895055
-0.0174961 -0.00172148 -0.00924195
-0.0201569 -0.00615797 -0.00863127
-0.0223516 -0.00704708 -0.00818545
-0.0204437 -0.0061209 -0.00752092
-0.0233771 -0.00727738 -0.00587034
-0.0203032 -0.00476907 -0.00878505
-0.0230316 -0.00450921 -0.0085198
-0.0203934 -0.00327049 -0.00893918
-0.0235562 -0.00159882 -0.00885536
-0.0174961 -0.00332866 0.0089999
-0.0174953 -0.00171904 0.0092767
-0.0204348 -0.00609637 0.00750652
-0.0233891 -0.0072466 0.00587674
-0.020165 -0.0061365 0.00862217
-0.0223539 -0.00701845 0.0081814
-0.0203229 -0.00475525 0.00879367
-0.0230651 -0.00449641 0.00851412
-0.0204194 -0.00325168 0.00893925
-0.023647 -0.00156854 0.00881705
-0.0175041 0.00164053 -0.00944526
-0.0175582 0.00327377 -0.00914185
-0.0173726 0.00331882 -0.00665803
-0.0174536 0.00665345 -0.00334894
-0.0205844 1.17014e-05 -0.00940692
-0.0237265 3.90108e-06 -0.00899886
-0.0210583 0.00321496 -0.00654576
-0.0247157 0.00619907 -0.0030563
-0.0249803 -1.11869e-05 -0.00615242
-0.0321181 1.06576e-05 -0.00206307
-0.0249071 0.00152511 -0.00616417
-0.03199 0.00212011 -0.00213719
-0.017476 0.00159971 0.00935183
-0.0175515 0.00322672 0.00904141
-0.017528 0.00334661 0.0066156
-0.017457 0.00664161 0.003287
-0.0174562 0.00320569 0.00798423
-0.0174158 0.00629476 0.00628482
-0.020573 5.84427e-06 0.00934455
-0.023749 2.14164e-05 0.00894354
-0.0211937 0.00322513 0.00648934
-0.0246906 0.00615 0.00300037
-0.0208394 0.00311922 0.00790596
-0.0239508 0.0059827 0.00593799
-0.0250517 -2.84616e-06 0.00608306
-0.0320291 -2.33821e-05 0.00204295
-0.0246583 1.29711e-05 0.00761411
-0.031592 -3.48905e-05 0.0044715
-0.0250447 0.0014936 0.00614883
-0.0319183 0.00205065 0.00209366
-0.0245099 0.00151573 0.00756797
-0.0313966 0.00201955 0.00449293
-0.0175286 0.00620041 -0.00859162
-0.0174562 0.00738705 -0.00849635
-0.0175126 0.00621396 -0.00752739
-0.01746 0.00755437 -0.00615375
-0.0174647 0.00641317 -0.00622715
-0.0174849 0.00803406 -0.00320964
-0.0204188 0.00327124 -0.00909745
-0.023558 0.00154677 -0.00886679
-0.0203267 0.00474279 -0.0089203
-0.0230811 0.00449574 -0.00865281
-0.0201653 0.00607293 -0.00861769
-0.0223193 0.00706915 -0.00820043
-0.0204203 0.00609493 -0.00757815
-0.0233021 0.0073111 -0.00588662
-0.0206654 0.00624181 -0.0062619
-0.0240786 0.00758221 -0.00300313
-0.0243697 0.00454318 -0.006069
-0.0317003 0.00326942 -0.00209046
-0.0175273 0.00615345 0.00752384
-0.0174805 0.00755044 0.00619046
-0.0175246 0.0061298 0.00852343
-0.0174578 0.00736376 0.00846992
-0.020484 0.00326896 0.00902087
-0.0236427 0.00153563 0.00882597
-0.0204114 0.00480126 0.00883671
-0.0232028 0.00455178 0.00860201
-0.0203857 0.0060815 0.00756587
-0.02333 0.00732447 0.00587963
-0.0202004 0.00611062 0.00862901
-0.0223136 0.00708803 0.00819412
-0.0238772 0.00450814 0.00741998
-0.03104 0.00309289 0.00444275
-0.0174428 0.00849237 -0.00744749
-0.017443 0.00861484 -0.00620275
-0.0196564 0.0084198 -0.00839437
-0.0217955 0.0081407 -0.00811325
-0.019898 0.00843553 -0.00738259
-0.0227317 0.00835134 -0.00589397
-0.0175355 0.00901889 -0.00331875
-0.0175027 0.00929293 -0.0016828
-0.0203074 0.00882337 -0.00477587
-0.0231523 0.00855107 -0.00454912
-0.0175121 0.00928707 0.00160972
-0.0175237 0.00909172 0.00323905
-0.0205765 0.00913471 -0.00167105
-0.0235157 0.0087182 -0.0030425
-0.0205523 0.00931268 7.59502e-06
-0.0236575 0.00887609 1.82575e-05
-0.0205522 0.00909836 0.00164945
-0.023489 0.0086779 0.00304186
-0.0249709 0.00609821 -1.23402e-05
-0.0320078 0.00208495 -5.96933e-06
-0.0245919 0.00761064 -4.8024e-06
-0.0315211 0.00450127 -6.75448e-06
-0.017477 0.00864723 0.00619222
-0.0174542 0.00852482 0.00745211
-0.0203858 0.00879383 0.00475259
-0.0231665 0.00855181 0.00451827
-0.0199148 0.00845089 0.00737181
-0.0227469 0.00838877 0.0059129
-0.0196693 0.00842927 0.00838085
-0.0217785 0.00814733 0.00809202
-0.0246164 -0.00757246 -0.00659613
-0.025161 -0.00785794 -0.0052494
-0.0246193 -0.00651179 -0.00765329
-0.0252952 -0.00532836 -0.0078051
-0.0254523 -0.00648542 -0.00649185
-0.0281001 -0.00426193 -0.00553214
-0.0269068 -0.00542345 -0.00671055
-0.0307514 -0.00211226 -0.00511475
-0.0263015 -0.00828177 -0.00257531
-0.0265342 -0.00828021 -0.00126557
-0.0263253 -0.00672375 -0.00535159
-0.0263079 -0.00533538 -0.00676141
-0.0273147 -0.00539891 -0.00545508
-0.0273425 -0.00252554 -0.00694525
-0.0276716 -0.00649501 -0.00437508
-0.0312326 -0.00508989 -0.00374973
-0.0284712 -0.00679014 -0.0030315
-0.0320777 -0.00514636 -0.00181394
-0.0287034 -0.00677969 -0.00200028
-0.0321525 -0.00527936 -0.0006609
-0.0295335 -0.00546211 -0.00435094
-0.0328259 -0.00251526 -0.00379712
-0.0303241 -0.00556359 -0.003052
-0.0335428 -0.00259851 -0.0018231
-0.0307 -0.00574036 -0.00206601
-0.0337636 -0.00271791 -0.000574991
-0.0310537 -0.00431417 -0.00318168
-0.0339691 -0.00124933 -0.00185063
-0.0313243 -0.00438254 -0.00201758
-0.0341608 -0.0011483 -0.000568143
-0.0266098 -0.00813217 0.00133724
-0.026471 -0.00812638 0.00266316
-0.0282589 -0.00552824 -0.00264346
-0.0281629 -0.00263957 -0.00551671
-0.0293874 -0.00706734 -1.53765e-05
-0.0325378 -0.00507439 -2.34141e-05
-0.0307799 -0.00583921 -7.29597e-06
-0.0337358 -0.00283978 -6.48576e-06
-0.031427 -0.00453828 3.62336e-06
-0.0341511 -0.00124239 -1.79496e-05
-0.0313981 -0.00452283 0.000999493
-0.0340576 -0.00122381 0.00117196
-0.025226 -0.00780598 0.00528048
-0.0246389 -0.00754491 0.00660209
-0.0263209 -0.00666401 0.00535959