# vtk DataFile Version 3.0
vtk output at time 0.1
ASCII
DATASET UNSTRUCTURED_GRID
POINTS 1524 float
0 0 0 0 0 0.05 0 0 0.1 
0 0 0.15 0 0 0.2 0 0.05 0 
0 0.05 0.05 0 0.05 0.1 0 0.05 0.15 
0 0.05 0.2 0 0.1 0 0 0.1 0.05 
0 0.1 0.1 0 0.1 0.15 0 0.1 0.2 
0 0.15 0 0 0.15 0.05 0 0.15 0.1 
0 0.15 0.15 0 0.15 0.2 0 0.2 0 
0 0.2 0.05 0 0.2 0.1 0 0.2 0.15 
0 0.2 0.2 0.0485499 -0.0012197 -0.00127653 0.0488015 -0.00132568 0.0493736 
0.0488514 -0.00134503 0.100003 0.0488018 -0.00132887 0.150626 0.0485538 -0.00122487 0.201271 
0.0487961 0.0493765 -0.00133393 0.0487933 0.0493746 0.20134 0.0488519 0.100005 -0.00138425 
0.0488565 0.100007 0.201376 0.0487972 0.15062 -0.0013242 0.0487925 0.150625 0.201334 
0.0485548 0.201213 -0.00127539 0.0487977 0.201332 0.0493689 0.0488527 0.201347 0.100001 
0.0488 0.201333 0.150626 0.0485533 0.201224 0.201268 0.0975075 -0.00140936 -0.00141492 
0.0975062 -0.00147919 0.0492153 0.0974984 -0.0016083 0.0999995 0.0974834 -0.00149385 0.150771 
0.0975068 -0.00141499 0.201403 0.0975153 0.0492147 -0.00145934 0.0975146 0.0492135 0.201466 
0.0974945 0.100007 -0.00162865 0.0975097 0.0999931 0.201615 0.0974701 0.150774 -0.00147858 
0.0974619 0.150761 0.201461 0.0975038 0.201399 -0.00141462 0.0974998 0.201471 0.0492092 
0.0975133 0.201615 0.100001 0.0974911 0.201493 0.15078 0.0975072 0.201405 0.201417 
0.146447 -0.00121948 -0.00127277 0.146214 -0.0013601 0.0493801 0.14614 -0.00139462 0.0999997 
0.146196 -0.00134499 0.150629 0.146445 -0.0012202 0.201271 0.146236 0.0493792 -0.00135962 
0.146236 0.04938 0.201354 0.146123 0.100009 -0.00140075 0.146122 0.100015 0.201392 
0.146205 0.150625 -0.00133197 0.146205 0.150628 0.201327 0.146451 0.20122 -0.00127377 
0.14623 0.201356 0.0493646 0.146134 0.201372 0.100009 0.146204 0.201377 0.150613 
0.146452 0.201226 0.201268 0.195 0 0 0.195 0 0.05 
0.195 0 0.1 0.195 0 0.15 0.195 0 0.2 
0.195 0.05 0 0.195 0.05 0.05 0.195 0.05 0.1 
0.195 0.05 0.15 0.195 0.05 0.2 0.195 0.1 0 
0.195 0.1 0.05 0.195 0.1 0.1 0.195 0.1 0.15 
0.195 0.1 0.2 0.195 0.15 0 0.195 0.15 0.05 
0.195 0.15 0.1 0.195 0.15 0.15 0.195 0.15 0.2 
0.195 0.2 0 0.195 0.2 0.05 0.195 0.2 0.1 
0.195 0.2 0.15 0.195 0.2 0.2 0 0 0.0166667 
0 0 0.0333333 0 0.0166667 0 0 0.0333333 0 
0.0159771 -0.00069597 -0.000909433 0.032187 -0.00105693 -0.00107462 0.016299 -0.00079593 0.0161029 
0.0324354 -0.00106817 0.0326484 0 0 0.0666667 0 0 0.0833333 
0 0.0166667 0.0333333 0 0.0333333 0.0166667 0 0.0166667 0.05 
0 0.0333333 0.05 0 0.0166667 0.0666667 0 0.0333333 0.0833333 
0.0163701 -0.000839713 0.0497251 0.0325344 -0.0011285 0.0495258 0 0 0.116667 
0 0 0.133333 0 0.0166667 0.1 0 0.0333333 0.1 
0.0163678 -0.000876071 0.0832279 0.0325484 -0.00112661 0.0663596 0.0163768 -0.000839017 0.100005 
0.0326054 -0.00116382 0.100004 0.0163673 -0.000872126 0.116781 0.0325469 -0.00112511 0.133646 
0 0 0.166667 0 0 0.183333 0 0.0166667 0.133333 
0 0.0333333 0.116667 0 0.0166667 0.15 0 0.0333333 0.15 
0 0.0166667 0.166667 0 0.0333333 0.183333 0.0163702 -0.000831658 0.150276 
0.0325336 -0.00112365 0.150479 0 0.0166667 0.2 0 0.0333333 0.2 
0.0162997 -0.00079448 0.183896 0.0324366 -0.00106532 0.167352 0.0159776 -0.000696756 0.200907 
0.0321891 -0.00105896 0.201071 0 0.05 0.0166667 0 0.05 0.0333333 
0 0.0666667 0 0 0.0833333 0 0 0.0666667 0.0166667 
0 0.0833333 0.0333333 0.0161999 0.0330029 -0.000834638 0.0323565 0.0158069 -0.00110329 
0.0164474 0.0329371 0.0160854 0.0326722 0.0157936 0.0326637 0.0163543 0.0497585 -0.000818728 
0.032577 0.0495435 -0.00116968 0.0163796 0.0665531 -0.000858493 0.0325725 0.0831967 -0.00116455 
0 0.05 0.0666667 0 0.05 0.0833333 0 0.0666667 0.05 
0 0.0833333 0.05 0.0164869 0.0329045 0.0497295 0.0327374 0.015767 0.0495336 
0.0164766 0.0497162 0.0329035 0.0327245 0.049525 0.015748 0.0165045 0.0664888 0.0328921 
0.0327794 0.083182 0.01574 0.0327877 0.0326503 0.0495079 0.0651476 0.0154319 0.0492779 
0.032827 0.032632 0.066349 0.0651921 0.0153952 0.0830968 0.0328067 0.0495068 0.0326306 
0.0651399 0.0492904 0.0154242 0.0328321 0.066334 0.0326282 0.0651861 0.0831051 0.0153956 
0 0.05 0.116667 0 0.05 0.133333 0 0.0666667 0.0833333 
0 0.0833333 0.0666667 0 0.0666667 0.1 0 0.0833333 0.1 
0 0.0666667 0.116667 0 0.0833333 0.133333 0.0165036 0.0328912 0.0832536 
0.0327686 0.0157453 0.0663555 0.0165015 0.0328828 0.100006 0.0327624 0.0157358 0.100004 
0.0165084 0.03289 0.116762 0.0327736 0.0157408 0.133658 0.0328477 0.0326221 0.100003 
0.0652163 0.0153834 0.100008 0.0328451 0.0326179 0.116829 0.0651834 0.0154131 0.133808 
0.0328865 0.0663271 0.0663314 0.0652484 0.0830944 0.0323155 0 0.05 0.166667 
0 0.05 0.183333 0 0.0666667 0.15 0 0.0833333 0.15 
0.0164937 0.0329125 0.150287 0.032747 0.015774 0.150476 0.0164791 0.0497202 0.1671 
0.0327247 0.0495271 0.184258 0.0165018 0.0664902 0.167108 0.032776 0.0831841 0.18426 
0.0328176 0.0326492 0.150507 0.0651559 0.0154409 0.150711 0.0328098 0.0495129 0.167376 
0.0651356 0.0492848 0.184581 0.0328319 0.0663424 0.167376 0.0651896 0.0830954 0.184608 
0 0.0666667 0.183333 0 0.0833333 0.166667 0 0.0666667 0.2 
0 0.0833333 0.2 0.0164494 0.0329366 0.183919 0.0326774 0.0157967 0.167338 
0.0162002 0.0330002 0.200839 0.0323585 0.0158035 0.201103 0.0163528 0.0497575 0.200821 
0.0325747 0.0495431 0.201174 0.0163782 0.0665544 0.200859 0.0325706 0.0832011 0.201164 
0 0.1 0.0166667 0 0.1 0.0333333 0 0.116667 0 
0 0.133333 0 0.0163453 0.100004 -0.000885453 0.0325131 0.0999898 -0.00112514 
0 0.1 0.0666667 0 0.1 0.0833333 0 0.116667 0.0333333 
0 0.133333 0.0166667 0 0.116667 0.05 0 0.133333 0.05 
0 0.116667 0.0666667 0 0.133333 0.0833333 0.0165096 0.0999983 0.0328805 
0.0327937 0.0999987 0.0157174 0.0165026 0.116759 0.0328889 0.032762 0.133648 0.0157472 
0.0328554 0.0999991 0.0326047 0.0652067 0.1 0.0153877 0.0328464 0.116822 0.0326063 
0.0651771 0.133801 0.0154144 0 0.1 0.116667 0 0.1 0.133333 
0 0.116667 0.1 0 0.133333 0.1 0.0328921 0.0663301 0.0999996 
0.0652441 0.0323162 0.0999966 0.0328884 0.0663452 0.116826 0.0652362 0.0323245 0.13381 
0.0328857 0.100001 0.0663334 0.0652449 0.1 0.0323193 0.0329153 0.0999982 0.133668 
0.0652474 0.0999963 0.167691 0.0328865 0.116826 0.0663425 0.0652346 0.133803 0.0323277 
0.0329003 0.116824 0.133667 0.065235 0.133828 0.167682 0.0329052 0.133669 0.100001 
0.0652457 0.167689 0.0999921 0.0328955 0.13366 0.116822 0.0652315 0.167677 0.133815 
0.0653419 0.0999991 0.0999968 0.129667 0.100003 0.100002 0 0.1 0.166667 
0 0.1 0.183333 0 0.116667 0.133333 0 0.133333 0.116667 
0 0.116667 0.15 0 0.133333 0.15 0 0.116667 0.166667 
0 0.133333 0.183333 0.0165107 0.0999971 0.167105 0.0327961 0.0999997 0.184269 
0.0165043 0.11675 0.167099 0.0327627 0.13364 0.184251 0.0328705 0.0663307 0.150517 
0.0652112 0.0323419 0.150728 0.0328568 0.0999937 0.167379 0.0652194 0.100001 0.184623 
0.0328489 0.11682 0.167379 0.0651796 0.133815 0.184596 0.032866 0.133657 0.150511 
0.0652108 0.167659 0.150729 0 0.116667 0.2 0 0.133333 0.2 
0.0163465 0.100006 0.200881 0.0325159 0.0999925 0.201118 0 0.15 0.0166667 
0 0.15 0.0333333 0 0.166667 0 0 0.183333 0 
0 0.166667 0.0166667 0 0.183333 0.0333333 0.0163584 0.133506 -0.000849885 
0.032546 0.116807 -0.00114693 0.0163882 0.150239 -0.00080734 0.0326024 0.150457 -0.00115722 
0.0162094 0.166984 -0.000823391 0.0323576 0.184192 -0.00109736 0.0164495 0.167053 0.0160871 
0.0326749 0.184218 0.0326672 0 0.15 0.0666667 0 0.15 0.0833333 
0 0.166667 0.05 0 0.183333 0.05 0.0164917 0.150287 0.0329047 
0.0327486 0.15048 0.0157646 0.0164897 0.167098 0.049731 0.0327391 0.18424 0.0495348 
0.0328123 0.150501 0.0326448 0.0651448 0.1507 0.0154405 0.0328038 0.167362 0.0495097 
0.0651478 0.184569 0.0492791 0.0328339 0.167373 0.066348 0.0651919 0.184602 0.0830938 
0 0.15 0.116667 0 0.15 0.133333 0 0.166667 0.0833333 
0 0.183333 0.0666667 0 0.166667 0.1 0 0.183333 0.1 
0 0.166667 0.116667 0 0.183333 0.133333 0.0165057 0.167108 0.0832529 
0.0327707 0.184259 0.0663551 0.0165038 0.167117 0.100003 0.0327638 0.184266 0.100002 
0.0165077 0.167112 0.116756 0.0327719 0.184264 0.133655 0.0328683 0.150514 0.0663325 
0.0652074 0.150718 0.0323438 0.0328544 0.167381 0.100001 0.065217 0.184619 0.100005 
0.0328435 0.167384 0.116826 0.0651793 0.18459 0.133811 0 0.15 0.166667 
0 0.15 0.183333 0 0.166667 0.15 0 0.183333 0.15 
0.0164899 0.150275 0.167095 0.0327447 0.150474 0.184243 0.0164931 0.167088 0.150282 
0.0327447 0.184231 0.150474 0.0328132 0.150488 0.167365 0.0651407 0.150718 0.184574 
0.0328236 0.167358 0.150497 0.0651551 0.184563 0.150711 0 0.166667 0.183333 
0 0.183333 0.166667 0 0.166667 0.2 0 0.183333 0.2 
0.0163577 0.133503 0.200849 0.0325461 0.116805 0.20114 0.0163854 0.150236 0.20081 
0.0325976 0.150456 0.201163 0.0164503 0.167049 0.183914 0.0326779 0.18421 0.167333 
0.0162085 0.166984 0.200824 0.0323566 0.184195 0.201096 0 0.2 0.0166667 
0 0.2 0.0333333 0.0159757 0.200687 -0.000909154 0.0321851 0.201054 -0.00107378 
0.0162987 0.200792 0.0161022 0.0324334 0.201078 0.0326459 0 0.2 0.0666667 
0 0.2 0.0833333 0.0163682 0.200841 0.049727 0.0325298 0.201135 0.0495281 
0 0.2 0.116667 0 0.2 0.133333 0.0163679 0.200876 0.0832273 
0.0325479 0.20113 0.066361 0.0163767 0.20084 0.100002 0.0326058 0.201166 0.100002 
0.0163664 0.200874 0.116778 0.0325448 0.20113 0.133644 0 0.2 0.166667 
0 0.2 0.183333 0.0163683 0.200834 0.150275 0.0325298 0.201129 0.150475 
0.0162985 0.20079 0.183896 0.0324333 0.201072 0.167352 0.0159748 0.200687 0.200906 
0.0321833 0.201057 0.201069 0.0486381 -0.00123856 0.0155956 0.0487039 -0.00128031 0.032496 
0.0486453 0.0156168 -0.001262 0.0487255 0.0324888 -0.00128595 0.0648624 -0.00134533 -0.00134738 
0.0811875 -0.0014029 -0.00139639 0.0649406 0.0155101 -0.0013664 0.0812557 0.0323296 -0.00145135 
0.0488329 -0.0013358 0.0662628 0.0488398 -0.00134311 0.0831296 0.0488743 0.0155994 0.0324853 
0.048866 0.0324989 0.0155739 0.0649825 -0.00139237 0.0323665 0.0812176 -0.00140817 0.0154429 
0.0650264 -0.00144203 0.0492704 0.0812626 -0.00149838 0.0492222 0.0650561 -0.00147286 0.066172 
0.0812813 -0.00156825 0.0830623 0.0650833 0.0154695 0.0323736 0.0812922 0.0323342 0.0154029 
[...]
POINT_DATA 1524
VECTORS displacement float
0 0 0
0 0 0
0 0 0
0 0 0
0 0 0
0 0 0
0 0 0
0 0 0
0 0 0
0 0 0
0 0 0
0 0 0
0 0 0
0 0 0
0 0 0
0 0 0
0 0 0
0 0 0
0 0 0
0 0 0
0 0 0
0 0 0
0 0 0
0 0 0
0 0 0
-0.00145014 -0.0012197 -0.00127653
-0.00119845 -0.00132568 -0.000626384
-0.00114856 -0.00134503 3.18615e-06
-0.00119821 -0.00132887 0.000626437
-0.00144617 -0.00122487 0.00127106
-0.00120394 -0.000623524 -0.00133393
-0.00120672 -0.000625376 0.00133996
-0.00114809 5.03216e-06 -0.00138425
-0.00114352 6.86978e-06 0.00137643
-0.00120279 0.000620253 -0.0013242
-0.00120746 0.000625168 0.00133449
-0.00144516 0.00121295 -0.00127539
-0.00120225 0.00133175 -0.000631142
-0.00114734 0.00134742 1.41368e-06
-0.00120004 0.00133279 0.000626374
-0.00144672 0.00122391 0.00126812
-0.00249252 -0.00140936 -0.00141492
-0.00249383 -0.00147919 -0.000784687
-0.00250164 -0.0016083 -5.48315e-07
-0.0025166 -0.00149385 0.000770655
-0.00249324 -0.00141499 0.00140339
-0.00248474 -0.000785306 -0.00145934
-0.0024854 -0.000786545 0.0014657
-0.00250553 6.6859e-06 -0.00162865
-0.00249029 -6.87253e-06 0.00161513
-0.00252987 0.000773816 -0.00147858
-0.00253809 0.000761277 0.00146083
-0.00249617 0.00139883 -0.00141462
-0.00250023 0.00147139 -0.000790816
-0.00248675 0.00161531 4.97335e-07
-0.0025089 0.00149326 0.000779827
-0.00249281 0.00140493 0.00141654
-0.0035534 -0.00121948 -0.00127277
-0.00378609 -0.0013601 -0.000619936
-0.00386026 -0.00139462 -3.45488e-07
-0.00380407 -0.00134499 0.000628826
-0.00355534 -0.0012202 0.00127082
-0.00376403 -0.000620795 -0.00135962
-0.00376426 -0.000619954 0.00135424
-0.00387749 8.80676e-06 -0.00140075
-0.00387835 1.5434e-05 0.00139233
-0.00379534 0.000624669 -0.00133197
-0.00379465 0.000627576 0.00132687
-0.00354864 0.00121951 -0.00127377
-0.00376954 0.00135554 -0.000635415
-0.00386567 0.00137224 8.50522e-06
-0.00379596 0.00137742 0.000613349
-0.00354753 0.00122621 0.00126791
-0.005 0 0
-0.005 0 0
-0.005 0 0
-0.005 0 0
-0.005 0 0
-0.005 0 0
-0.005 0 0
-0.005 0 0
-0.005 0 0
-0.005 0 0
-0.005 0 0
-0.005 0 0
-0.005 0 0
-0.005 0 0
-0.005 0 0
-0.005 0 0
-0.005 0 0
-0.005 0 0
-0.005 0 0
-0.005 0 0
-0.005 0 0
-0.005 0 0
-0.005 0 0
-0.005 0 0
-0.005 0 0
0 0 0
0 0 0
0 0 0
0 0 0
-0.00068961 -0.00069597 -0.000909433
-0.00114638 -0.00105693 -0.00107462
-0.000367709 -0.00079593 -0.000563728
-0.000897964 -0.00106817 -0.000684933
0 0 0
0 0 0
0 0 0
0 0 0
0 0 0
0 0 0
0 0 0
0 0 0
-0.000296578 -0.000839713 -0.000274871
-0.000798938 -0.0011285 -0.000474166
0 0 0
0 0 0
0 0 0
0 0 0
-0.000298917 -0.000876071 -0.000105457
-0.000784945 -0.00112661 -0.000307096
-0.000289836 -0.000839017 4.78074e-06
-0.000727956 -0.00116382 4.35367e-06
-0.00029937 -0.000872126 0.000114311
-0.000786409 -0.00112511 0.000312809
0 0 0
0 0 0
0 0 0
0 0 0
0 0 0
0 0 0
0 0 0
0 0 0
-0.000296498 -0.000831658 0.000276178
-0.00079971 -0.00112365 0.000478641
0 0 0
0 0 0
-0.000366981 -0.00079448 0.000562284
-0.000896699 -0.00106532 0.000685717
-0.000689074 -0.000696756 0.000906754
-0.00114428 -0.00105896 0.00107141
0 0 0
0 0 0
0 0 0
0 0 0
0 0 0
0 0 0
-0.000466736 -0.000330441 -0.000834638
-0.000976797 -0.000859792 -0.00110329
-0.000219253 -0.000396279 -0.000581239
-0.000661179 -0.000873026 -0.000669605
-0.000312401 -0.000241504 -0.000818728
-0.000756376 -0.000456503 -0.00116968
-0.000287084 -0.000113561 -0.000858493
-0.000760872 -0.000136619 -0.00116455
0 0 0
0 0 0
0 0 0
0 0 0
-0.000179721 -0.000428805 -0.000270481
-0.000595944 -0.000899693 -0.000466366
-0.000190029 -0.000283811 -0.000429846
-0.000608828 -0.000474951 -0.000918643
-0.000162217 -0.000177916 -0.000441184
-0.000553908 -0.00015138 -0.000926706
-0.000545653 -0.000683082 -0.000492127
-0.00151905 -0.00123472 -0.000722069
-0.000506349 -0.000701328 -0.000317705
-0.00147456 -0.00127152 -0.000236499
-0.000526678 -0.000493218 -0.000702746
-0.00152677 -0.000709639 -0.00124249
-0.000501262 -0.000332684 -0.000705117
-0.00148058 -0.000228243 -0.00127103
0 0 0
0 0 0
0 0 0
0 0 0
0 0 0
0 0 0
0 0 0
0 0 0
-0.000163104 -0.000442092 -7.97411e-05
-0.000564737 -0.000921331 -0.000311138
-0.000165211 -0.000450526 5.72942e-06
-0.000570941 -0.000930867 3.95781e-06
-0.000158276 -0.000443328 9.50614e-05
-0.000559724 -0.000925857 0.000324415
-0.000485607 -0.000711226 3.02537e-06
-0.0014504 -0.00128326 7.68141e-06
-0.000488211 -0.000715474 0.000162486
-0.00148323 -0.00125361 0.000474601
-0.000446781 -0.000339616 -0.000335272
-0.0014183 -0.000238933 -0.00101779
0 0 0
0 0 0
0 0 0
0 0 0
-0.000172948 -0.000420828 0.000286747
-0.000586319 -0.000892715 0.000476416
-0.000187528 -0.000279825 0.000433132
-0.000608582 -0.000472877 0.000924541
-0.000164841 -0.000176422 0.000441654
-0.000557333 -0.000149219 0.000926648
-0.00051577 -0.000684173 0.00050652
-0.00151079 -0.00122575 0.00071067
-0.000523562 -0.000487062 0.000709075
-0.00153111 -0.000715169 0.00124738
-0.000501471 -0.000324239 0.000709675
-0.00147707 -0.000237922 0.00127512
0 0 0
0 0 0
0 0 0
0 0 0
-0.000217235 -0.000396689 0.000585643
-0.000655965 -0.00086996 0.000671417
-0.000466448 -0.00033314 0.000838632
-0.000974798 -0.00086318 0.00110317
-0.000313869 -0.000242538 0.000820743
-0.000758622 -0.000456862 0.0011742
-0.000288514 -0.000112249 0.000859241
-0.000762715 -0.000132205 0.0011641
0 0 0
0 0 0
0 0 0
0 0 0
-0.000321321 3.62704e-06 -0.000885453
-0.000820228 -1.01524e-05 -0.00112514
0 0 0
0 0 0
0 0 0
0 0 0
0 0 0
0 0 0
0 0 0
0 0 0
-0.000157114 -1.71916e-06 -0.000452832
-0.000539642 -1.28631e-06 -0.000949287
-0.000164041 9.27098e-05 -0.000444381
-0.000571362 0.000314434 -0.000919471
-0.000477907 -9.15191e-07 -0.000728584
-0.00145996 3.74168e-08 -0.001279
-0.000486906 0.00015555 -0.000727048
-0.00148954 0.000468091 -0.00125224
0 0 0
0 0 0
0 0 0
0 0 0
-0.000441252 -0.000336602 -4.36873e-07
-0.00142256 -0.00101717 -3.43656e-06
-0.00044493 -0.000321471 0.000159486
-0.00143047 -0.00100879 0.000476241
-0.000447582 5.60137e-07 -0.000333318
-0.00142175 3.30805e-07 -0.00101405
-0.000418071 -1.81795e-06 0.000334385
-0.00141927 -3.71353e-06 0.0010244
-0.000446826 0.00015916 -0.000324127
-0.00143209 0.000469815 -0.00100563
-0.000433036 0.000156899 0.000333221
-0.00143166 0.000494684 0.00101527
-0.000428158 0.000335724 1.11667e-06
-0.00142095 0.00102281 -7.92125e-06
-0.000437795 0.000326927 0.000155393
-0.00143517 0.00101042 0.000481302
-0.00132482 -9.2528e-07 -3.22354e-06
-0.00366591 3.44424e-06 1.80731e-06
0 0 0
0 0 0
0 0 0
0 0 0
0 0 0
0 0 0
0 0 0
0 0 0
-0.000155984 -2.93853e-06 0.000438706
-0.000537261 -2.99416e-07 0.000935711
-0.000162391 8.3661e-05 0.000432331
-0.000570608 0.000306701 0.000918115
-0.000462794 -0.000335954 0.000516565
-0.0014555 -0.000991391 0.000727514
-0.000476529 -6.27883e-06 0.000712831
-0.00144728 8.23467e-07 0.00128963
-0.000484408 0.000152952 0.000712544
-0.00148703 0.000481565 0.0012624
-0.000467328 0.000323952 0.000510974
-0.00145585 0.000992322 0.000729292
0 0 0
0 0 0
-0.000320207 5.8394e-06 0.00088096
-0.000817421 -7.4556e-06 0.00111796
0 0 0
0 0 0
0 0 0
0 0 0
0 0 0
0 0 0
-0.000308274 0.000172976 -0.000849885
-0.000787363 0.000140333 -0.00114693
-0.000278456 0.000238707 -0.00080734
-0.000730936 0.000457072 -0.00115722
-0.000457316 0.000317571 -0.000823391
-0.000975773 0.000858656 -0.00109736
-0.000217136 0.000385958 -0.000579557
-0.000658413 0.000884855 -0.000666153
0 0 0
0 0 0
0 0 0
0 0 0
-0.000174978 0.000286637 -0.000428645
-0.000584766 0.000479589 -0.000902064
-0.000176958 0.000431408 -0.000269041
-0.000594259 0.000906599 -0.00046521
-0.000521043 0.000500928 -0.000688546
-0.00152189 0.000700047 -0.00122619
-0.000529538 0.000695218 -0.000490312
-0.00151889 0.00123565 -0.000720939
-0.000499453 0.000706151 -0.000318696
-0.00147475 0.00126824 -0.000239515
0 0 0
0 0 0
0 0 0
0 0 0
0 0 0
0 0 0
0 0 0
0 0 0
-0.000161015 0.000441598 -8.04467e-05
-0.000562676 0.000926014 -0.000311538
-0.000162892 0.000450276 2.53976e-06
-0.000569559 0.000932769 1.92452e-06
-0.000158943 0.000445072 8.96588e-05
-0.000561421 0.000930863 0.000321471
-0.000464984 0.000514274 -0.000334192
-0.00145931 0.000717954 -0.000989538
-0.000478912 0.000714129 1.40284e-06
-0.00144971 0.0012855 5.00898e-06
-0.000489852 0.000717005 0.000159116
-0.00148737 0.00125628 0.000478051
0 0 0
0 0 0
0 0 0
0 0 0
-0.0001768 0.000275423 0.000428324
-0.000588589 0.000473974 0.000909586
-0.000173614 0.000421107 0.000281879
-0.000588659 0.000897346 0.000473884
-0.000520118 0.000488173 0.000698422
-0.00152599 0.000718347 0.00124065
-0.000509728 0.000691371 0.000497475
-0.0015116 0.00122977 0.000711477
0 0 0
0 0 0
0 0 0
0 0 0
-0.00030898 0.000169741 0.000848671
-0.0007872 0.000138403 0.00113987
-0.000281288 0.000236267 0.000809875
-0.000735749 0.000455888 0.0011629
-0.000216415 0.000382434 0.000580493
-0.000655402 0.000876811 0.000666427
-0.000458199 0.000317057 0.00082441
-0.000976766 0.00086172 0.00109645
0 0 0
0 0 0
-0.000690973 0.000686544 -0.000909154
-0.00114827 0.00105409 -0.00107378
-0.00036797 0.000791958 -0.000564516
-0.000899943 0.00107818 -0.000687467
0 0 0
0 0 0
-0.000298463 0.000841196 -0.000273008
-0.000803544 0.00113487 -0.000471922
0 0 0
0 0 0
-0.000298759 0.00087636 -0.000106004
-0.000785408 0.00113 -0.000305699
-0.000289957 0.000839511 2.38368e-06
-0.000727508 0.00116609 2.358e-06
-0.000300234 0.000874269 0.000111517
-0.000788484 0.00113023 0.000310198
0 0 0
0 0 0
-0.000298361 0.000834213 0.000274889
-0.00080356 0.00112872 0.00047518
-0.000368161 0.000789717 0.000562388
-0.000899981 0.00107249 0.000685444
-0.000691883 0.000686864 0.000906433
-0.00115002 0.001057 0.00106941
-0.00136191 -0.00123856 -0.00107107
-0.00129614 -0.00128031 -0.000837312
-0.00135466 -0.00104985 -0.001262
-0.00127448 -0.000844556 -0.00128595
-0.00180423 -0.00134533 -0.00134738
-0.00214588 -0.0014029 -0.00139639
-0.0017261 -0.00115659 -0.0013664
-0.00207759 -0.00100372 -0.00145135
-0.00116713 -0.0013358 -0.00040391
-0.00116017 -0.00134311 -0.000203782
-0.00112569 -0.00106723 -0.000848059
-0.00113405 -0.000834457 -0.00109281
-0.0016842 -0.00139237 -0.000966815
-0.00211578 -0.00140817 -0.00122379
-0.00164023 -0.00144203 -0.000729589
-0.00207076 -0.00149838 -0.000777836
-0.00161056 -0.00147286 -0.000494716
-0.00205206 -0.00156825 -0.000271045
-0.00158333 -0.00119718 -0.000959689
-0.00204118 -0.000999136 -0.00126374
-0.0011586 -0.00134493 0.000207976
-0.00116499 -0.00133766 0.000404413
-0.00158182 -0.00148689 3.51449e-06
-0.00203485 -0.00157702 2.9227e-06
-0.00129468 -0.00128036 0.000834531
-0.00135998 -0.00124005 0.00106653
-0.00111915 -0.00106696 0.000845216
-0.00113102 -0.000836187 0.00109764
-0.00160153 -0.00146904 0.00048009
-0.00203638 -0.00156361 0.000266736
-0.00164733 -0.00144274 0.000719606
-0.0020893 -0.00149889 0.00076004
-0.00168248 -0.0013927 0.00095804
-0.00211398 -0.00140893 0.00121067
-0.00157883 -0.00119732 0.000950734
-0.00204199 -0.00100109 0.00126172
-0.00135155 -0.00105549 0.00126056
-0.0012735 -0.00084963 0.00129059
-0.00180091 -0.0013528 0.00133754
-0.00214406 -0.00140974 0.00138359
-0.0017229 -0.00116428 0.0013625
-0.0020764 -0.00101072 0.00145144
-0.00117606 -0.000406587 -0.00134403
-0.00117048 -0.00019609 -0.00135228
-0.00162759 -0.000723639 -0.00145109
-0.00205835 -0.000774513 -0.00149286
-0.00117938 -0.000405713 0.00134869
-0.00117149 -0.000193429 0.00135361
-0.00163108 -0.000729156 0.00145722
-0.00206162 -0.000781208 0.00149881
-0.00117224 0.000197241 -0.0013499
-0.00118117 0.000404652 -0.00133888
-0.0015973 -0.000230731 -0.00148971
-0.00204511 -0.000512661 -0.00152885
-0.00159738 4.88618e-06 -0.00151207
-0.00205464 9.98323e-06 -0.00159283
-0.00159249 0.00024408 -0.00148188
-0.00204838 0.000519233 -0.00152664
-0.00117175 0.000197666 0.0013447
-0.00118158 0.000404098 0.00133947
-0.00159737 -0.000234085 0.00149281
-0.00204984 -0.00052142 0.00153511
-0.00159068 4.4978e-06 0.00150751
-0.0020433 3.40519e-06 0.00158925
-0.00159095 0.000247314 0.00148656
-0.00204885 0.000525004 0.00153553
-0.00127142 0.000846651 -0.00127978
-0.00135328 0.00104951 -0.00125582
-0.00112592 0.000839292 -0.0010832
-0.00112011 0.00107913 -0.000843876
-0.00164623 0.000708779 -0.00144803
-0.00209172 0.00074971 -0.00150317
-0.00112673 0.000842879 0.00108834
-0.00111797 0.00107552 0.000839881
-0.00127436 0.000855128 0.0012843
-0.00135546 0.00105932 0.00125474
-0.00164973 0.000723176 0.00145952
-0.00209636 0.000765282 0.0015048
-0.00135637 0.00123994 -0.00107313
-0.00129176 0.00128891 -0.000842499
-0.00172267 0.00115062 -0.00136314
-0.00208705 0.000989789 -0.00144752
-0.00179714 0.00133987 -0.00134792
-0.00214236 0.00139265 -0.00139676
-0.0011663 0.00133997 -0.000405806
-0.00115785 0.00134594 -0.000205115
-0.00157786 0.00119958 -0.000956039
-0.00204607 0.000987087 -0.00126093
-0.00167602 0.00139341 -0.000968458
-0.00210881 0.00139976 -0.00122232
-0.0016403 0.00144961 -0.000734851
-0.00207387 0.00149825 -0.000784371
-0.00160876 0.0014725 -0.000495597
-0.00204734 0.00156151 -0.000271413
-0.00115878 0.00134855 0.000206249
-0.00116696 0.00134358 0.000403526
-0.00158019 0.00148694 1.90115e-06
-0.00203032 0.00157675 2.04987e-06
-0.001293 0.00128695 0.000834556
-0.00135943 0.00124311 0.00106502
-0.00157702 0.00120311 0.000949313
-0.00204922 0.00100043 0.0012616
-0.00160265 0.00147243 0.000481424
-0.00203522 0.00155891 0.000267305
-0.00164175 0.0014487 0.000719798
-0.0020791 0.00150363 0.000764779
-0.00167832 0.00139614 0.000956381
-0.00210962 0.00140904 0.00121526
-0.00172387 0.00116668 0.00136168
-0.00208667 0.00100576 0.00145201
-0.00180143 0.00135499 0.00133813
-0.00214336 0.00140636 0.00138992
-0.00249574 -0.00142087 -0.00123236
-0.00249516 -0.0014461 -0.00101879
-0.00249333 -0.00122287 -0.00141846
-0.00249021 -0.00101677 -0.00143826
-0.00284594 -0.00140134 -0.00138575
-0.00319493 -0.00134327 -0.00134073
-0.00288057 -0.00140227 -0.00121085
-0.00331486 -0.00138496 -0.000958534
-0.00250024 -0.00152582 -0.000530982
-0.00250831 -0.00157065 -0.000265741
-0.00250303 -0.00125145 -0.00101811
-0.00249893 -0.0010048 -0.00125058
-0.00250782 -0.00103162 -0.0010359
-0.0024987 -0.000512314 -0.00132313
-0.00291773 -0.00147072 -0.000766993
-0.00334647 -0.00142977 -0.000719749
-0.00298976 -0.00101799 -0.0010224
-0.00347862 -0.00047059 -0.00125923
-0.002502 -0.00157264 0.000258841
-0.00250173 -0.00153729 0.000521137
-0.0025054 -0.00110099 -0.000538808
-0.00249696 -0.000535643 -0.00109775
-0.00249551 -0.00109049 0.000534484
-0.00250075 -0.000538238 0.00109669
-0.00294581 -0.00152918 -0.000266097
-0.00337323 -0.00145187 -0.00049018
-0.00294728 -0.00157455 5.91742e-06
-0.00340583 -0.00150935 4.82081e-06
-0.00295798 -0.00155596 0.000261875
-0.00339696 -0.00147764 0.000485816
-0.00303624 -0.00108174 -0.000519273
-0.00354801 -0.000483165 -0.00102153
-0.00302783 -0.001071 0.000514719
-0.00355752 -0.000483268 0.00101526
-0.00357164 -0.00101112 -7.38808e-07
-0.004573 -0.00033289 5.40482e-06
-0.00357003 -0.00101578 0.000238581
-0.00456554 -0.000340656 0.000333838
-0.0025001 -0.0014431 0.00100608
-0.00249535 -0.00141861 0.00122058
-0.00250458 -0.00125135 0.00100988
-0.00249893 -0.00100201 0.00125061
-0.00250535 -0.00101901 0.00104861
-0.00250523 -0.000512145 0.00133651
-0.002935 -0.00146602 0.000764283
-0.00336543 -0.00142112 0.000725359
-0.00298904 -0.00101286 0.00102195
-0.0034814 -0.000466753 0.00125857
-0.00249495 -0.00122708 0.00141127
-0.00249074 -0.00101997 0.00143607
-0.00288207 -0.00140029 0.00120558
-0.00332104 -0.00138325 0.000958717
-0.00284906 -0.00140125 0.00138108
-0.0031981 -0.00134228 0.00133869
-0.00249545 -0.000536799 -0.00150359
-0.0024969 -0.000275544 -0.00155604
-0.0029139 -0.0010021 -0.00144103
-0.00327196 -0.00115261 -0.00135865
-0.00295349 -0.000994558 -0.00124469
-0.00340769 -0.00119439 -0.000949292
-0.00292638 -0.000770287 -0.0014713
-0.00334397 -0.000722679 -0.00142615
-0.00293327 -0.000523175 -0.00150172
-0.00340127 -0.000250392 -0.00149237
-0.00249754 -0.000538234 0.00151484
-0.002497 -0.0002767 0.00156452
-0.00295239 -0.000993142 0.00124355
-0.00340933 -0.00119131 0.000948923
-0.00291484 -0.00100274 0.0014404
-0.00327302 -0.00115257 0.00135735
-0.00292722 -0.000771079 0.0014748
-0.00334393 -0.000724191 0.00142663
-0.00293488 -0.000523916 0.00150442
-0.00340751 -0.000247448 0.0014887
-0.00250117 0.000257209 -0.00159234
-0.00250799 0.000519873 -0.00153751
-0.00248832 0.000531353 -0.00109841
-0.00249753 0.00109647 -0.000542181
-0.00295779 7.69406e-06 -0.00159121
-0.0034217 6.54854e-06 -0.00152001
-0.00302365 0.00051532 -0.00107856
-0.0035571 0.00102042 -0.000488281
-0.00357438 -5.65252e-07 -0.00101789
-0.00457141 3.21249e-06 -0.00033267
-0.00357025 0.000240367 -0.00101825
-0.00456589 0.000335764 -0.00033881
-0.00249867 0.000251721 0.00157619
-0.00251239 0.0005146 0.00151931
-0.00250431 0.00053783 0.00109413
-0.00249789 0.00109332 0.000531864
-0.00249397 0.000512229 0.00133223
-0.00248963 0.00103232 0.00103236
-0.00295502 2.99398e-06 0.00158539
-0.00342333 7.26894e-06 0.00151569
-0.00303919 0.000520093 0.0010728
-0.00355353 0.00101331 0.00047849
-0.00299984 0.000493077 0.00132265
-0.00348075 0.000970048 0.000966959
-0.00358238 -8.4087e-07 0.00101016
-0.00456301 -1.70241e-06 0.000331795
-0.00354415 4.64003e-06 0.00127663
-0.00452665 -5.01952e-06 0.000725229
-0.00358855 0.000237697 0.00101987
-0.0045596 0.00032681 0.000333407
-0.00352782 0.00024134 0.0012649
-0.00451197 0.000313789 0.000716633
-0.00250166 0.00100816 -0.001436
-0.00249439 0.0012126 -0.00141563
-0.00250101 0.00100929 -0.00124853
-0.0024936 0.00124898 -0.00100802
-0.00249685 0.00104819 -0.00102106
-0.00249866 0.00133899 -0.000515107
-0.00293929 0.000524073 -0.00152314
-0.00339826 0.000248153 -0.00148893
-0.00293405 0.000761431 -0.00149212
-0.00336233 0.000714962 -0.0014457
-0.00291478 0.000987266 -0.00143524
-0.00326993 0.00115209 -0.00135959
-0.00295355 0.000989894 -0.00125067
-0.00339882 0.00120332 -0.000952156
-0.00298206 0.00101981 -0.00102365
-0.00348149 0.001262 -0.000477308
-0.00352191 0.000728659 -0.0009921
-0.00454 0.000518644 -0.00032601
-0.00250275 0.00100511 0.00124658
-0.00249655 0.00125062 0.00101389
-0.00250313 0.00100156 0.00142318
-0.00249418 0.00121421 0.00141113
-0.00295132 0.000525659 0.00152022
-0.00340713 0.000246334 0.00148978
-0.00294579 0.000776529 0.00148103
-0.00337078 0.00073122 0.00143904
-0.00294731 0.000988506 0.00125328
-0.00340246 0.00120595 0.000953713
-0.00292015 0.000995589 0.00143913
-0.00326858 0.001159 0.0013598
-0.00346305 0.000720735 0.00122665
-0.00448435 0.0004816 0.000703674
-0.00249214 0.00140867 -0.0012329
-0.0024921 0.0014369 -0.00102124
-0.00284826 0.00139213 -0.00139411
-0.00319586 0.00134232 -0.00134513
-0.00288048 0.00139716 -0.00121754
-0.00331363 0.00138761 -0.000958874
-0.00250613 0.00151881 -0.000538413
-0.00250239 0.00156805 -0.000269733
-0.0029321 0.00147512 -0.000777879
-0.00336349 0.00142879 -0.000733185
-0.00250247 0.00156305 0.000260394
-0.00250614 0.00152647 0.000525605
-0.00295939 0.0015425 -0.000269227
-0.00340185 0.00146238 -0.000488517
-0.00295489 0.00157815 3.01475e-06
-0.00341788 0.00150278 5.11499e-06
-0.00295645 0.00153197 0.000268772
-0.0034009 0.00145628 0.000488304
-0.00357747 0.00101079 -2.5237e-06
-0.00455972 0.000336306 -1.09007e-06
-0.00354066 0.00127222 -6.82092e-07
-0.00451778 0.000730235 -1.51994e-06
-0.00249729 0.00144269 0.00101694
-0.00249472 0.00141682 0.00123159
-0.00294271 0.00146938 0.000773294
-0.00336862 0.00143 0.000727855
-0.0028826 0.00140216 0.0012152
-0.00331719 0.00139521 0.000962366
-0.00284987 0.00139781 0.00139068
-0.00319362 0.00134794 0.00134096
-0.00363746 -0.00124452 -0.00106976
-0.00369968 -0.00129804 -0.000835462
-0.00363994 -0.00105555 -0.00125827
-0.00371671 -0.000851618 -0.00129034
-0.00384526 -0.00105996 -0.00107401
-0.00430454 -0.000689946 -0.000909653
-0.00401611 -0.000864296 -0.00110077
-0.00453588 -0.000315205 -0.000823556
-0.00382803 -0.0013833 -0.000404372
-0.00384823 -0.00139081 -0.000199862
-0.00386145 -0.00109032 -0.000849324
-0.00385892 -0.000846126 -0.00109946
-0.00396995 -0.0008628 -0.000872904
-0.00396089 -0.000391016 -0.00114758
-0.00409096 -0.00107408 -0.000686116
-0.0046285 -0.000792491 -0.000563964
-0.00418217 -0.00113599 -0.000472886
-0.00469609 -0.000829832 -0.000273617