# vtk DataFile Version 3.0
vtk output at time 0.7
ASCII
DATASET UNSTRUCTURED_GRID
POINTS 1331 float
0 0 0 0 0 0.05 0 0 0.1 
0 0 0.15 0 0 0.2 0 0.05 0 
0 0.05 0.05 0 0.05 0.1 0 0.05 0.15 
0 0.05 0.2 0 0.1 0 0 0.1 0.05 
0 0.1 0.1 0 0.1 0.15 0 0.1 0.2 
0 0.15 0 0 0.15 0.05 0 0.15 0.1 
0 0.15 0.15 0 0.15 0.2 0 0.2 0 
0 0.2 0.05 0 0.2 0.1 0 0.2 0.15 
0 0.2 0.2 0.0388457 -0.00726982 -0.00717536 0.0410963 -0.00708097 0.0464073 
0.0425963 -0.00741961 0.100078 0.0415481 -0.0073463 0.153637 0.0386431 -0.00734893 0.207279 
0.0416439 0.0466232 -0.007482 0.0417173 0.0465421 0.207481 0.0422679 0.100265 -0.00731355 
0.0420054 0.10005 0.207218 0.0423582 0.153758 -0.00739645 0.0422182 0.15357 0.207561 
0.0386894 0.207533 -0.00700995 0.0411403 0.207134 0.0465773 0.0427287 0.207377 0.10015 
0.0416955 0.207338 0.153628 0.0385805 0.207456 0.207269 0.0824281 -0.00926106 -0.00888265 
0.0827987 -0.0101748 0.0448461 0.0832193 -0.0103874 0.0998182 0.0815848 -0.0102488 0.154916 
0.0822978 -0.00935266 0.209148 0.0822214 0.0446843 -0.00973886 0.0821221 0.0448108 0.210241 
0.0829023 0.0999087 -0.010428 0.0834447 0.0999712 0.210586 0.0821022 0.155493 -0.0106107 
0.0824178 0.155189 0.210584 0.082507 0.209816 -0.00887471 0.0824099 0.210464 0.0451442 
0.0836493 0.210486 0.100143 0.0818148 0.210178 0.155083 0.0824677 0.209463 0.209316 
0.126318 -0.00806924 -0.00758955 0.123777 -0.00806842 0.0462866 0.122267 -0.00772941 0.100247 
0.123457 -0.00781378 0.153725 0.126146 -0.0081147 0.207439 0.123609 0.0462753 -0.00856319 
0.123689 0.0461476 0.208548 0.122161 0.100163 -0.0081943 0.12272 0.10002 0.208155 
0.122438 0.153789 -0.00797781 0.123173 0.153602 0.207783 0.126101 0.207595 -0.00742729 
0.124385 0.207659 0.046437 0.122955 0.207819 0.100105 0.123935 0.207954 0.153619 
0.126207 0.207585 0.207382 0.165 0 0 0.165 0 0.05 
0.165 0 0.1 0.165 0 0.15 0.165 0 0.2 
0.165 0.05 0 0.165 0.05 0.05 0.165 0.05 0.1 
0.165 0.05 0.15 0.165 0.05 0.2 0.165 0.1 0 
0.165 0.1 0.05 0.165 0.1 0.1 0.165 0.1 0.15 
0.165 0.1 0.2 0.165 0.15 0 0.165 0.15 0.05 
0.165 0.15 0.1 0.165 0.15 0.15 0.165 0.15 0.2 
0.165 0.2 0 0.165 0.2 0.05 0.165 0.2 0.1 
0.165 0.2 0.15 0.165 0.2 0.2 0 0 0.025 
0 0.025 0 0.0185362 -0.00444055 -0.00621557 0.0212261 -0.00555088 0.0213527 
0 0 0.075 0 0.025 0.025 0 0.025 0.05 
0 0.025 0.075 0.0219395 -0.0056539 0.0475709 0 0 0.125 
0 0.025 0.1 0.0217495 -0.00580163 0.0736402 0.0220021 -0.00552331 0.100131 
0.0218873 -0.00562647 0.126568 0 0 0.175 0 0.025 0.125 
0 0.025 0.15 0 0.025 0.175 0.0220843 -0.00556077 0.152478 
0 0.025 0.2 0.0213241 -0.0055231 0.178587 0.01844 -0.00445009 0.206192 
0 0.05 0.025 0 0.075 0 0 0.075 0.025 
0.0198338 0.0217671 -0.00566103 0.0221271 0.0210303 0.0213782 0.0211249 0.047926 -0.00527971 
0.0221345 0.0747944 -0.00572179 0 0.05 0.075 0 0.075 0.05 
0.0223377 0.0211551 0.0478862 0.0222234 0.047911 0.021269 0.0229497 0.0744279 0.0208946 
0.0428603 0.0196886 0.0463558 0.0436791 0.0193639 0.07316 0.0430057 0.0464842 0.0195339 
0.044181 0.0733112 0.0190381 0 0.05 0.125 0 0.075 0.075 
0 0.075 0.1 0 0.075 0.125 0.022595 0.0209636 0.0739492 
0.0228544 0.0210645 0.100118 0.0228748 0.0211375 0.126242 0.0439559 0.0192277 0.0998682 
0.044482 0.019037 0.127082 0.0448664 0.073272 0.0456957 0 0.05 0.175 
0 0.075 0.15 0.0227087 0.0212168 0.152273 0.0223804 0.0478153 0.178694 
0.0228102 0.0742206 0.179081 0.0439592 0.0193168 0.153839 0.043282 0.0463923 0.180534 
0.0438455 0.0731583 0.18081 0 0.075 0.175 0 0.075 0.2 
0.0222569 0.0210303 0.178615 0.0198123 0.0217649 0.205644 0.0212451 0.0478472 0.205288 
0.0220685 0.074611 0.205767 0 0.1 0.025 0 0.125 0 
0.0221848 0.100407 -0.00551826 0 0.1 0.075 0 0.125 0.025 
0 0.125 0.05 0 0.125 0.075 0.0229425 0.100359 0.0212395 
0.0230801 0.126286 0.0211695 0.0448243 0.10004 0.0189563 0.0447359 0.12722 0.0191008 
0 0.1 0.125 0 0.125 0.1 0.0442136 0.0457314 0.0999223 
0.0448092 0.0457399 0.127037 0.0448383 0.100056 0.045647 0.0440922 0.100013 0.154462 
0.0450397 0.127149 0.0458062 0.044457 0.126998 0.154267 0.0442773 0.154306 0.100073 
0.0446939 0.15418 0.127169 0.0826625 0.100005 0.10004 0 0.1 0.175 
0 0.125 0.125 0 0.125 0.15 0 0.125 0.175 
0.0227567 0.100202 0.178974 0.0229037 0.126182 0.179049 0.0445419 0.0458799 0.153886 
0.0440218 0.0999479 0.18096 0.044053 0.126984 0.180869 0.0447108 0.15419 0.153978 
0 0.125 0.2 0.0220489 0.100247 0.205737 0 0.15 0.025 
0 0.175 0 0 0.175 0.025 0.0219342 0.12607 -0.00555184 
0.0218698 0.15234 -0.0051118 0.0200143 0.178171 -0.00547557 0.0221772 0.178855 0.0214582 
0 0.15 0.075 0 0.175 0.05 0.0227869 0.152231 0.0213798 
0.0223846 0.178778 0.0479596 0.0441438 0.153935 0.0194406 0.0433233 0.180528 0.0464761 
0.043884 0.180692 0.0732642 0 0.15 0.125 0 0.175 0.075 
0 0.175 0.1 0 0.175 0.125 0.0226566 0.178984 0.0739931 
0.0229008 0.178882 0.100139 0.0228925 0.178893 0.126262 0.0446826 0.153925 0.0459587 
0.0441588 0.180785 0.100035 0.0445399 0.180987 0.127175 0 0.15 0.175 
0 0.175 0.15 0.0226926 0.152147 0.178891 0.022737 0.178694 0.152281 
0.0438405 0.153744 0.180827 0.0442133 0.180797 0.153925 0 0.175 0.175 
0 0.175 0.2 0.0217716 0.125959 0.205834 0.0217507 0.152237 0.205374 
0.0223035 0.178809 0.178644 0.0199001 0.178108 0.205605 0 0.2 0.025 
0.0185631 0.204398 -0.00608097 0.0212504 0.205489 0.021486 0 0.2 0.075 
0.0219653 0.205602 0.0476355 0 0.2 0.125 0.0217954 0.205725 0.0737169 
0.0220506 0.205463 0.100165 0.0219069 0.205617 0.126593 0 0.2 0.175 
0.0221469 0.205436 0.152517 0.0213846 0.205382 0.178563 0.0184519 0.204338 0.20617 
0.0401771 -0.00725157 0.0193538 0.0408057 0.0196777 -0.00757341 0.0605787 -0.00852372 -0.00803704 
0.0615826 0.0182114 -0.0084003 0.0419521 -0.00732289 0.0732584 0.0423093 0.019705 0.019333 
0.0613271 -0.00838378 0.0185357 0.0620916 -0.00858891 0.0453602 0.0625378 -0.0087647 0.0724125 
0.0625964 0.0183172 0.018402 0.0421275 -0.00735231 0.126845 0.0631287 -0.00892126 0.0998539 
0.0402057 -0.00735981 0.180734 0.0424516 0.0195944 0.180729 0.0627985 -0.00906472 0.127231 
0.061829 -0.00889799 0.154573 0.0612617 -0.00855435 0.181733 0.0625834 0.0182275 0.18185 
0.0407492 0.0196003 0.207668 0.0604084 -0.00861167 0.208322 0.0614721 0.0181743 0.208648 
0.0420542 0.0732629 -0.00744357 0.0620457 0.0453929 -0.00869097 0.0420331 0.0731749 0.20743 
0.0620431 0.045433 0.208886 0.042412 0.126892 -0.00740989 0.0628314 0.0725413 -0.00899557 
0.063006 0.100059 -0.00910821 0.0629818 0.12742 -0.00916816 0.0422445 0.126721 0.207526 
0.0628406 0.0726234 0.209042 0.0630002 0.0999302 0.208965 0.063003 0.127243 0.209105 
0.0411062 0.18072 -0.00743422 0.0426975 0.180604 0.0195063 0.0624433 0.155006 -0.00893466 
0.042691 0.180499 0.180776 0.0409235 0.180529 0.207727 0.0624672 0.154682 0.209049 
0.0401288 0.207412 0.0195569 0.0617497 0.182391 -0.00838211 0.0605208 0.209143 -0.00782646 
0.0420545 0.207297 0.0734087 0.0629254 0.182127 0.0184122 0.0613706 0.208872 0.018718 
0.0620177 0.20887 0.0456378 0.0627055 0.20884 0.0727307 0.042242 0.207382 0.126873 
0.0633944 0.208952 0.100073 0.04022 0.207388 0.180731 0.0627751 0.181903 0.182006 
0.0630019 0.209104 0.127362 0.0620459 0.208917 0.15469 0.0613579 0.208668 0.181833 
0.0616024 0.182002 0.208809 0.0604715 0.208782 0.208394 0.0827479 -0.00925072 0.0176761 
0.0824742 0.0174453 -0.00931294 0.104386 -0.00856582 -0.00847537 0.104009 -0.00851662 0.018159 
0.0830629 -0.0102675 0.0721947 0.0828604 0.017409 0.0175362 0.0829953 0.0448534 0.0174161 
0.103323 -0.00868584 0.0452189 0.102371 0.0453286 0.0179445 0.0828935 -0.010514 0.127414 
0.0830083 0.0448508 0.0450708 0.082994 0.0449528 0.155032 0.102921 -0.00885662 0.0724953 
0.102392 -0.0088679 0.100054 0.102757 -0.00927417 0.1275 0.101853 0.045342 0.0452331 
0.101462 0.0452689 0.15509 0.120869 0.0457552 0.100182 0.120824 0.0458484 0.127178 
0.0822583 -0.00934194 0.182391 0.0823076 0.0174126 0.18272 0.0827398 0.0449903 0.182824 
0.102322 -0.00862798 0.154822 0.101937 0.0452091 0.182366 0.0823294 0.0174107 0.209668 
0.10356 -0.00854918 0.181729 0.104199 -0.00871902 0.208335 0.0828388 0.0721804 -0.0101266 
0.103554 0.0181716 -0.00872063 0.10305 0.0182409 0.0180551 0.103141 0.0452015 -0.00890809 
0.102586 0.072421 -0.00908553 0.0830101 0.0722851 0.210425 0.102563 0.0181468 0.182014 
0.103326 0.018029 0.208698 0.103147 0.0450447 0.209079 0.1028 0.0723246 0.20947 
0.0825975 0.127753 -0.010444 0.0830574 0.155241 0.0452736 0.102223 0.0998592 -0.00915948 
0.101562 0.15495 0.0454756 0.120981 0.100134 0.0455093 0.121035 0.12698 0.0456718 
0.08317 0.127699 0.210549 0.082962 0.155063 0.15493 0.0830162 0.155163 0.182784 
0.102588 0.0997364 0.209643 0.101437 0.154957 0.15463 0.101954 0.154939 0.182184 
0.12068 0.100002 0.154568 0.120776 0.0997745 0.181296 0.120506 0.126805 0.154605 
0.120999 0.126642 0.181356 0.0824982 0.183033 -0.00952868 0.0826794 0.183126 0.0174946 
0.082941 0.183022 0.0450768 0.102306 0.127626 -0.00887863 0.102087 0.154952 -0.00878977 
0.103263 0.182269 -0.00845316 0.102539 0.182171 0.0183231 0.101997 0.182305 0.0454994 
0.121339 0.153953 0.0460364 0.0821974 0.182552 0.18285 0.0824647 0.182656 0.209885 
0.102684 0.127333 0.209519 0.10269 0.154745 0.209175 0.102452 0.18213 0.181984 
0.10334 0.182027 0.208752 0.121657 0.1537 0.18103 0.0826245 0.209862 0.017818 
0.104459 0.209107 -0.00799743 0.103994 0.208869 0.0185696 0.0831622 0.210462 0.0725247 
0.10314 0.20907 0.0453798 0.083059 0.21046 0.127652 0.103128 0.209304 0.0726793 
0.102964 0.209528 0.100134 0.102786 0.209118 0.127632 0.121496 0.154304 0.100041 
0.121982 0.180966 0.100064 0.0822662 0.20944 0.182535 0.102345 0.208665 0.1549 
0.103576 0.208623 0.18175 0.104372 0.208818 0.208315 0.125037 -0.00802345 0.0189586 
0.124485 0.0190279 -0.00830119 0.146793 -0.00473593 -0.00668872 0.145423 0.0213695 -0.0062709 
0.122917 -0.00796847 0.0732599 0.123107 0.0190219 0.0186695 0.122293 0.0459961 0.0187352 
0.14391 -0.00580806 0.0209763 0.143057 -0.00580527 0.0472317 0.14335 -0.00608283 0.0733796 
0.143045 0.0206785 0.0207253 0.142595 0.0208393 0.0471715 0.142468 0.0205336 0.0736386 
[...]
POINT_DATA 1331
VECTORS displacement float
0 0 0
0 0 0
0 0 0
0 0 0
0 0 0
0 0 0
0 0 0
0 0 0
0 0 0
0 0 0
0 0 0
0 0 0
0 0 0
0 0 0
0 0 0
0 0 0
0 0 0
0 0 0
0 0 0
0 0 0
0 0 0
0 0 0
0 0 0
0 0 0
0 0 0
-0.0111543 -0.00726982 -0.00717536
-0.00890375 -0.00708097 -0.00359266
-0.00740369 -0.00741961 7.80193e-05
-0.00845193 -0.0073463 0.0036369
-0.0113569 -0.00734893 0.00727888
-0.0083561 -0.00337676 -0.007482
-0.00828271 -0.00345792 0.00748141
-0.00773208 0.000264982 -0.00731355
-0.00799457 4.98721e-05 0.00721808
-0.00764178 0.0037578 -0.00739645
-0.00778182 0.00357002 0.00756122
-0.0113106 0.00753264 -0.00700995
-0.00885974 0.00713447 -0.0034227
-0.00727128 0.00737728 0.000149776
-0.00830454 0.00733833 0.00362783
-0.0114195 0.00745564 0.00726861
-0.0175719 -0.00926106 -0.00888265
-0.0172013 -0.0101748 -0.00515391
-0.0167807 -0.0103874 -0.000181829
-0.0184152 -0.0102488 0.0049164
-0.0177022 -0.00935266 0.00914798
-0.0177786 -0.00531569 -0.00973886
-0.0178779 -0.00518916 0.0102409
-0.0170977 -9.13317e-05 -0.010428
-0.0165553 -2.88292e-05 0.0105864
-0.0178978 0.00549331 -0.0106107
-0.0175822 0.00518916 0.0105836
-0.017493 0.00981558 -0.00887471
-0.0175901 0.0104638 -0.00485578
-0.0163507 0.0104862 0.000142621
-0.0181853 0.0101781 0.00508321
-0.0175323 0.00946283 0.0093163
-0.0236825 -0.00806924 -0.00758955
-0.0262229 -0.00806842 -0.00371338
-0.0277333 -0.00772941 0.000247198
-0.0265426 -0.00781378 0.00372531
-0.0238544 -0.0081147 0.0074386
-0.0263913 -0.00372474 -0.00856319
-0.0263109 -0.00385243 0.00854839
-0.0278386 0.000163179 -0.0081943
-0.02728 1.95055e-05 0.008155
-0.0275625 0.00378943 -0.00797781
-0.0268275 0.00360155 0.00778284
-0.0238992 0.00759521 -0.00742729
-0.0256155 0.00765865 -0.003563
-0.027045 0.00781902 0.000105038
-0.0260652 0.00795402 0.00361852
-0.0237934 0.00758497 0.0073815
-0.035 0 0
-0.035 0 0
-0.035 0 0
-0.035 0 0
-0.035 0 0
-0.035 0 0
-0.035 0 0
-0.035 0 0
-0.035 0 0
-0.035 0 0
-0.035 0 0
-0.035 0 0
-0.035 0 0
-0.035 0 0
-0.035 0 0
-0.035 0 0
-0.035 0 0
-0.035 0 0
-0.035 0 0
-0.035 0 0
-0.035 0 0
-0.035 0 0
-0.035 0 0
-0.035 0 0
-0.035 0 0
0 0 0
0 0 0
-0.0064638 -0.00444055 -0.00621557
-0.00377392 -0.00555088 -0.00364729
0 0 0
0 0 0
0 0 0
0 0 0
-0.00306052 -0.0056539 -0.00242909
0 0 0
0 0 0
-0.00325053 -0.00580163 -0.00135979
-0.00299788 -0.00552331 0.000131143
-0.00311268 -0.00562647 0.00156805
0 0 0
0 0 0
0 0 0
0 0 0
-0.00291567 -0.00556077 0.00247804
0 0 0
-0.00367592 -0.0055231 0.00358734
-0.00655996 -0.00445009 0.00619153
0 0 0
0 0 0
0 0 0
-0.0051662 -0.0032329 -0.00566103
-0.0028729 -0.00396969 -0.00362184
-0.00387513 -0.002074 -0.00527971
-0.00286554 -0.00020559 -0.00572179
0 0 0
0 0 0
-0.00266226 -0.00384492 -0.00211377
-0.00277657 -0.00208896 -0.00373099
-0.00205029 -0.000572096 -0.00410545
-0.00713971 -0.0053114 -0.00364423
-0.00632089 -0.00563611 -0.00183997
-0.00699427 -0.00351585 -0.00546609
-0.00581899 -0.00168879 -0.00596194
0 0 0
0 0 0
0 0 0
0 0 0
-0.00240503 -0.00403641 -0.0010508
-0.00214558 -0.00393555 0.000117527
-0.00212517 -0.00386247 0.00124178
-0.00604414 -0.00577234 -0.000131828
-0.00551802 -0.00596305 0.00208248
-0.0051336 -0.00172802 -0.00430433
0 0 0
0 0 0
-0.00229126 -0.00378319 0.00227308
-0.00261958 -0.00218474 0.00369402
-0.00218976 -0.000779366 0.00408134
-0.00604081 -0.00568318 0.00383901
-0.00671799 -0.00360775 0.00553428
-0.00615451 -0.00184166 0.00580976
0 0 0
0 0 0
-0.0027431 -0.00396971 0.00361476
-0.00518769 -0.00323506 0.00564366
-0.00375495 -0.00215279 0.00528845
-0.00293154 -0.000388957 0.00576748
0 0 0
0 0 0
-0.00281525 0.000407303 -0.00551826
0 0 0
0 0 0
0 0 0
0 0 0
-0.0020575 0.000359425 -0.00376049
-0.00191995 0.00128637 -0.0038305
-0.00517566 3.96178e-05 -0.00604373
-0.00526407 0.00221994 -0.00589917
0 0 0
0 0 0
-0.00578643 -0.00426855 -7.76603e-05
-0.00519083 -0.00426012 0.00203707
-0.00516169 5.55673e-05 -0.00435305
-0.00590783 1.27686e-05 0.00446237
-0.00496032 0.00214926 -0.00419376
-0.00554296 0.00199771 0.00426677
-0.0057227 0.00430549 7.26116e-05
-0.00530612 0.00418016 0.00216873
-0.0173375 4.57041e-06 3.98175e-05
0 0 0
0 0 0
0 0 0
0 0 0
-0.00224328 0.000202371 0.00397419
-0.0020963 0.00118189 0.00404901
-0.00545808 -0.00412015 0.00388623
-0.00597824 -5.21147e-05 0.00596002
-0.00594696 0.001984 0.00586913
-0.0052892 0.00418953 0.00397764
0 0 0
-0.00295107 0.000247486 0.00573686
0 0 0
0 0 0
0 0 0
-0.00306582 0.00107008 -0.00555184
-0.00313019 0.00234045 -0.0051118
-0.00498574 0.00317124 -0.00547557
-0.00282277 0.00385507 -0.00354182
0 0 0
0 0 0
-0.00221314 0.00223118 -0.00362019
-0.00261542 0.00377847 -0.00204045
-0.00585624 0.00393502 -0.00555943
-0.0066767 0.00552843 -0.00352394
-0.00611601 0.00569185 -0.00173582
0 0 0
0 0 0
0 0 0
0 0 0
-0.00234343 0.00398372 -0.0010069
-0.00209925 0.00388191 0.000139402
-0.00210748 0.0038928 0.00126211
-0.00531745 0.003925 -0.00404126
-0.00584116 0.00578522 3.52277e-05
-0.00546013 0.00598711 0.00217539
0 0 0
0 0 0
-0.00230741 0.00214743 0.00389067
-0.00226301 0.0036943 0.00228123
-0.00615954 0.00374444 0.00582724
-0.00578667 0.0057973 0.00392462
0 0 0
0 0 0
-0.00322835 0.00095859 0.00583359
-0.00324931 0.00223657 0.00537387
-0.00269647 0.00380921 0.0036436
-0.00509991 0.00310825 0.00560521
0 0 0
-0.00643695 0.0043984 -0.00608097
-0.00374961 0.00548912 -0.00351398
0 0 0
-0.0030347 0.00560173 -0.00236454
0 0 0
-0.00320463 0.00572486 -0.00128305
-0.00294941 0.00546316 0.000165145
-0.00309308 0.00561745 0.00159311
0 0 0
-0.00285305 0.00543561 0.00251664
-0.00361536 0.0053821 0.00356341
-0.00654809 0.00433797 0.00616982
-0.00982292 -0.00725157 -0.00564623
-0.00919428 -0.00532227 -0.00757341
-0.0144213 -0.00852372 -0.00803704
-0.0134174 -0.00678861 -0.0084003
-0.00804789 -0.00732289 -0.00174165
-0.0076907 -0.00529504 -0.00566699
-0.0136729 -0.00838378 -0.0064643
-0.0129085 -0.00858891 -0.00463983
-0.0124622 -0.0087647 -0.00258754
-0.0124036 -0.0066828 -0.00659803
-0.00787249 -0.00735231 0.00184484
-0.0118713 -0.00892126 -0.000146111
-0.00979431 -0.00735981 0.00573378
-0.00754836 -0.00540564 0.00572919
-0.0122015 -0.00906472 0.00223092
-0.013171 -0.00889799 0.00457306
-0.0137383 -0.00855435 0.00673287
-0.0124166 -0.00677252 0.00684999
-0.00925076 -0.00539975 0.00766847
-0.0145916 -0.00861167 0.0083217
-0.0135279 -0.00682571 0.00864802
-0.00794578 -0.00173707 -0.00744357
-0.0129543 -0.00460713 -0.00869097
-0.0079669 -0.00182512 0.00743027
-0.0129569 -0.00456697 0.00888632
-0.00758799 0.00189196 -0.00740989
-0.0121686 -0.00245867 -0.00899557
-0.011994 5.88356e-05 -0.00910821
-0.0120182 0.00242017 -0.00916816
-0.00775546 0.00172148 0.00752622
-0.0121594 -0.00237658 0.00904194
-0.0119998 -6.98467e-05 0.00896499
-0.011997 0.00224303 0.00910549
-0.00889385 0.00572043 -0.00743422
-0.00730247 0.00560369 -0.00549367
-0.0125567 0.00500635 -0.00893466
-0.00730901 0.00549932 0.00577597
-0.00907646 0.00552916 0.00772724
-0.0125328 0.00468243 0.00904893
-0.00987117 0.00741203 -0.00544312
-0.0132503 0.00739121 -0.00838211
-0.0144792 0.00914325 -0.00782646
-0.00794545 0.00729743 -0.00159134
-0.0120746 0.00712728 -0.00658781
-0.0136294 0.00887228 -0.00628202
-0.0129823 0.00887037 -0.00436219
-0.0122945 0.00883979 -0.00226932
-0.00775796 0.00738187 0.00187292
-0.0116056 0.00895162 7.26866e-05
-0.00977996 0.00738811 0.00573125
-0.0122249 0.00690331 0.00700625
-0.0119981 0.00910449 0.00236247
-0.0129541 0.00891677 0.00468969
-0.0136421 0.00866762 0.00683276
-0.0133976 0.00700185 0.00880876
-0.0145285 0.00878172 0.00839393
-0.0172521 -0.00925072 -0.00732393
-0.0175258 -0.00755466 -0.00931294
-0.0206141 -0.00856582 -0.00847537
-0.0209915 -0.00851662 -0.00684098
-0.0169371 -0.0102675 -0.00280528
-0.0171396 -0.00759099 -0.00746381
-0.0170047 -0.00514659 -0.00758394
-0.0216772 -0.00868584 -0.00478112
-0.0226286 -0.00467143 -0.00705555
-0.0171065 -0.010514 0.0024144
-0.0169917 -0.00514925 -0.00492917
-0.017006 -0.00504725 0.00503163
-0.0220791 -0.00885662 -0.00250471
-0.0226083 -0.0088679 5.40979e-05
-0.0222435 -0.00927417 0.00249979
-0.0231475 -0.00465799 -0.00476687
-0.0235375 -0.00473115 0.00508967
-0.0291309 -0.00424478 0.000182425
-0.029176 -0.00415158 0.00217772
-0.0177417 -0.00934194 0.00739101
-0.0176924 -0.00758745 0.00772047
-0.0172602 -0.00500975 0.00782448
-0.0226779 -0.00862798 0.00482246
-0.0230632 -0.00479092 0.00736622
-0.0176706 -0.00758933 0.00966763
-0.0214404 -0.00854918 0.00672908
-0.0208007 -0.00871902 0.00833465
-0.0171613 -0.00281956 -0.0101266
-0.0214464 -0.00682845 -0.00872063
-0.0219495 -0.00675912 -0.00694486
-0.0218592 -0.00479853 -0.00890809
-0.022414 -0.00257899 -0.00908553
-0.0169899 -0.00271491 0.0104249
-0.0224374 -0.0068532 0.00701401
-0.0216744 -0.00697104 0.00869767
-0.0218533 -0.00495532 0.00907903
-0.0222003 -0.00267538 0.00946967
-0.0174025 0.00275281 -0.010444
-0.0169427 0.00524106 -0.00472639
-0.0227769 -0.000140846 -0.00915948
-0.0234378 0.00494958 -0.00452442
-0.0290189 0.000133923 -0.0044907
-0.0289653 0.00197975 -0.00432817
-0.01683 0.00269927 0.0105491
-0.017038 0.00506336 0.00493005
-0.0169838 0.005163 0.00778419
-0.0224118 -0.000263566 0.00964272
-0.0235627 0.00495695 0.00462951
-0.0230457 0.00493892 0.00718437
-0.0293199 2.4494e-06 0.00456776
-0.0292245 -0.000225514 0.00629562
-0.0294942 0.00180503 0.00460516
-0.0290011 0.00164202 0.006356
-0.0175018 0.00803318 -0.00952868
-0.0173206 0.00812591 -0.00750544
-0.017059 0.00802221 -0.00492324
-0.0226938 0.00262627 -0.00887863
-0.0229133 0.00495178 -0.00878977
-0.0217373 0.00726856 -0.00845316
-0.0224609 0.00717128 -0.0066769
-0.0230034 0.00730536 -0.00450063
-0.0286608 0.0039526 -0.00396361
-0.0178026 0.00755218 0.00785039
-0.0175353 0.0076563 0.00988464
-0.0223156 0.0023329 0.0095193
-0.0223104 0.00474483 0.00917518
-0.0225477 0.00713018 0.00698358
-0.0216604 0.00702718 0.00875236
-0.0283426 0.00369967 0.00602965
-0.0173755 0.00986222 -0.00718199
-0.0205413 0.00910717 -0.00799743
-0.0210063 0.0088692 -0.00643043
-0.0168378 0.0104622 -0.00247532
-0.0218598 0.00907045 -0.00462016
-0.016941 0.0104597 0.00265194
-0.0218718 0.00930405 -0.0023207
-0.0220362 0.0095284 0.000133838
-0.0222143 0.00911828 0.00263227
-0.0285037 0.00430417 4.12945e-05
-0.0280182 0.00596561 6.44294e-05
-0.0177338 0.00944014 0.00753504
-0.0226545 0.00866524 0.00490023
-0.0214241 0.00862316 0.00674997
-0.0206284 0.00881833 0.00831488
-0.0249629 -0.00802345 -0.00604137
-0.0255148 -0.00597214 -0.00830119
-0.028207 -0.00473593 -0.00668872
-0.0295766 -0.00363049 -0.0062709
-0.0270827 -0.00796847 -0.00174009
-0.0268927 -0.00597814 -0.00633054
-0.0277067 -0.00400391 -0.00626476
-0.0310897 -0.00580806 -0.00402371
-0.0319434 -0.00580527 -0.00276833
-0.0316498 -0.00608283 -0.00162039
-0.0319554 -0.00432154 -0.0042747
-0.0324045 -0.00416066 -0.0028285
-0.0325319 -0.00446641 -0.00136145
-0.0326158 -0.00262522 -0.00277567
-0.0328725 -0.00282309 -0.00131392
-0.0271872 -0.0079137 0.00211114
-0.0284313 -0.00399857 -0.00409961
-0.0318297 -0.00588902 6.80392e-05
-0.0327035 -0.00452815 2.35982e-05
-0.0330691 -0.00321305 1.11949e-06
-0.0330347 -0.00338707 0.00113872
-0.0252127 -0.0079664 0.00592764
-0.027132 -0.00599557 0.0063013
-0.0279273 -0.00411529 0.00625718
-0.0316139 -0.00620805 0.00167882
-0.0320476 -0.00574144 0.00273338
-0.031175 -0.00580112 0.00389546
-0.0325895 -0.00456987 0.0013537
-0.0325292 -0.00412272 0.00275081
-0.0320372 -0.00432429 0.00415284
-0.0328063 -0.00260504 0.00266146
-0.0256375 -0.00610005 0.00820852
-0.0283278 -0.00477895 0.006518
-0.0296692 -0.00368445 0.00611366
-0.0271387 -0.00172951 -0.00841405
-0.0313148 -0.00249535 -0.00589898
-0.0323586 -0.00248076 -0.00446303
-0.0325824 -0.00116733 -0.00438097
-0.0268767 -0.0018591 0.00840853
-0.0324559 -0.00253856 0.00424687
-0.0313508 -0.00258529 0.00569436
-0.0326841 -0.00121557 0.00408441
-0.0276401 0.00222908 -0.00803752
-0.0316665 -0.000912161 -0.00630018
-0.0321757 -0.0001299 -0.00612904
-0.0327882 -7.21693e-05 -0.0047747
-0.032928 0.000168809 -0.00338425
-0.0321309 0.000636056 -0.00631378
-0.0327257 0.00111942 -0.00503936
-0.032982 0.00120658 -0.00380677
-0.0269275 0.00199223 0.00797177
-0.0317093 -0.000883808 0.00595184
-0.0326924 6.55018e-05 0.00409971
-0.0321083 -0.000231261 0.00582215
-0.0328818 0.000823387 0.0044
-0.0320469 0.00035301 0.00602134
-0.0260197 0.00569248 -0.00784531
-0.0272487 0.0056789 -0.00599768
-0.0279199 0.00583272 -0.00387615
-0.0313469 0.00244041 -0.00590803
-0.0322793 0.00256183 -0.00458324
-0.0325949 0.00258597 -0.00319435
-0.0273352 0.0056855 0.00602582
-0.0258299 0.00558822 0.00792109
-0.0324269 0.00217506 0.00406133
-0.0312491 0.00210171 0.00560338
-0.0248541 0.00756288 -0.00578869
-0.0298112 0.00355481 -0.00626714
-0.0284004 0.00459675 -0.0067469
-0.0265104 0.00781374 -0.00167204
-0.0319137 0.00422481 -0.00433226
-0.0323447 0.00414218 -0.00295793
-0.0325165 0.00403692 -0.00159745
-0.0309728 0.00577442 -0.00418703
-0.0317154 0.00598088 -0.00280102
-0.0316059 0.00587799 -0.00169618
-0.0266451 0.00813753 0.00171922
-0.032095 0.00376382 1.38585e-05
-0.0316114 0.00555005 4.7172e-05
-0.0250375 0.00755729 0.00585034
-0.0325541 0.00368234 0.00151639
-0.0323742 0.00375776 0.00295175
-0.0320981 0.00399657 0.00417092
-0.0317435 0.00557937 0.00179653
-0.0319625 0.00559246 0.00274078
-0.0311715 0.00554043 0.00404806
-0.0298184 0.00326827 0.00611559
-0.0283947 0.00440108 0.00663071
-0.035 0 0
-0.035 0 0
-0.035 0 0
-0.035 0 0
-0.035 0 0
-0.035 0 0
-0.035 0 0
-0.035 0 0
-0.035 0 0
-0.035 0 0
-0.035 0 0
-0.035 0 0
-0.035 0 0
-0.035 0 0
-0.035 0 0
-0.035 0 0
-0.035 0 0
-0.035 0 0
-0.035 0 0
-0.035 0 0
-0.035 0 0
-0.035 0 0
-0.035 0 0
-0.035 0 0
-0.035 0 0
-0.035 0 0
-0.035 0 0
-0.035 0 0
-0.035 0 0
-0.035 0 0
-0.035 0 0
-0.035 0 0
-0.035 0 0
-0.035 0 0
-0.035 0 0
-0.035 0 0
-0.035 0 0
-0.035 0 0
-0.035 0 0
-0.035 0 0
-0.035 0 0
-0.035 0 0
-0.035 0 0
-0.035 0 0
-0.035 0 0
-0.035 0 0
-0.035 0 0
-0.035 0 0
-0.035 0 0
-0.035 0 0
-0.035 0 0
-0.035 0 0
-0.035 0 0
-0.035 0 0
-0.035 0 0
-0.035 0 0
-0.0283361 0.00643038 -0.00617687
-0.0306172 0.00267987 -0.00529947
-0.0150669 -0.00904484 0.00629738
-0.0326112 0.00494397 -0.00245851
-0.035 0 0
-0.0329325 0.00353393 -0.00360218
0 0 0
-0.035 0 0
0 0 0
-0.0104294 0.00837624 -0.00131073
-0.035 0 0
-0.0321272 -0.000230562 0.00360545
-0.0126852 0.00849854 -0.00652669
-0.0149354 0.00840059 -0.00852093
-0.035 0 0
-0.0300007 -0.00183946 0.00691174
-0.0336304 -0.00104434 0.00346955
-0.00645741 -0.00614789 -0.00564776
-0.00418756 -0.00256073 -0.00485018
-0.0135901 -0.00181394 -0.00952655
-0.0231155 -0.0058952 -0.00860247
-0.0150362 -0.00774846 -0.0085293
-0.0126779 -0.0080313 -0.00674537
-0.00447414 0.00645436 0.00110654
-0.00136081 -0.00249959 -0.00228213
-0.0116473 -0.00566731 -0.00817622
-0.011669 -0.00692306 -0.00687331
0 0 0
-0.0336677 -0.000594037 0.00362436
-0.035 0 0
-0.0329862 -0.000742277 0.00489937
-0.00563708 0.00365861 -0.00626983
0 0 0
-0.0018968 -0.00336965 -0.00314032
-0.00218479 -0.00468965 -0.00205237
-0.00156986 -0.00350998 -0.0022691
-0.0147929 0.00929224 -0.00596196
-0.0143861 0.00815141 -0.00747399
-0.00254849 -0.00169549 -0.00330775
-0.035 0 0
-0.00349344 -0.00390568 -0.000837951
0 0 0
-0.00189405 0.000843843 -0.00463815
0 0 0
-0.0237611 0.00607367 -0.00829005
-0.0288541 0.00385619 0.00285748
-0.0140351 -0.00952914 0.00304737
-0.0289924 0.0036099 0.00686795
-0.0223223 0.00828953 0.00699751
-0.0200238 0.0079854 0.00888398
-0.0138739 0.00814947 -0.00613636
-0.00482689 -0.00148172 -0.00656228
-0.00178436 -0.00150437 -0.00311147
-0.0057886 0.00356382 0.00645003
0 0 0
-0.00209935 -0.00460369 0.00202829
0 0 0
-0.00148233 -0.00344992 0.00223221
-0.035 0 0
-0.00525285 0.0048172 -0.00531686
-0.00649917 0.00614346 -0.00547962
-0.00406726 0.00247814 -0.00472616
-0.00185546 0.00326678 -0.0030462
-0.00213058 0.00457432 -0.00197459
-0.00152116 0.00336407 -0.00219114
0 0 0
0 0 0
-0.00132622 0.00163929 -0.00300956
-0.00130685 0.00234318 -0.0022399
-0.00424543 0.00389476 -0.00494296
0 0 0
0 0 0
-0.00131635 -0.000618492 -0.00345162
0 0 0
-0.00125124 -7.32177e-05 -0.00349876
-0.00123814 0.000306394 -0.00334953
-0.00186921 -0.00020616 -0.00469352
0 0 0
-0.00203869 0.000786603 0.00492556
-0.0147239 -0.0088386 -0.00617833
-0.0139541 -0.00774375 -0.00622949
-0.0144928 -0.0076356 -0.00746787
-0.00413135 0.00243024 0.004747
-0.00522372 0.00476749 0.00546639
-0.00649612 0.00606383 0.00560762
-0.0240003 0.00306328 0.0089242
0 0 0
-0.00141673 0.00333451 -0.00157426
0 0 0
-0.00147399 0.00374621 -0.000981374
-0.00211427 0.00487621 -0.00136308
-0.0338835 0.000377742 0.00286376
0 0 0
-0.00215647 -0.00494888 -0.00142514
-0.00870341 0.0061371 0.00151245
-0.00455208 0.00176822 0.00668388
-0.00132118 0.000985745 0.00347071
-0.00135667 0.000627411 0.00366135
-0.00456216 -0.00659974 -0.00083919
-0.00138006 -0.00361593 -0.000481616
-0.00478258 -0.00163648 0.0066079
0 0 0
-0.00127998 0.00339384 0.000726471
-0.001978 0.00462763 0.00157278
0 0 0
-0.00133489 0.00349816 0.00118122
-0.00109966 0.00255322 0.00101674
-0.00129809 0.00314965 0.00169379
-0.00642351 -0.00626289 -0.00116704
-0.0105991 -0.00835381 -0.00155053
-0.00363648 -0.00529166 -0.000875637
-0.00446344 0.00192318 -0.00639477
-0.00123567 0.00103818 -0.00321352
-0.00125472 0.000687081 -0.00340496
-0.00426364 0.00381235 0.00512219
-0.001382 0.0015931 0.00321273
-0.00358615 0.00375834 0.00404501
-0.00124878 0.00230763 0.00230797
0 0 0
-0.00178776 0.00318248 0.00303845
-0.00202646 0.00443908 0.00202435
-0.00142952 0.00327059 0.00222887
-0.00128846 -0.00249412 0.00226411
-0.00168751 -0.00158209 0.00307993
-0.00183045 -0.00332332 0.00305961
-0.0041968 -0.00254866 0.00478452
-0.00649102 -0.00616097 0.00563057
-0.0335512 0.0032503 0.00201076
-0.035 0 0
-0.00251273 0.00351883 0.00119538
0 0 0
-0.00243338 0.00253801 0.00236114
-0.0304678 0.00386317 0.00560613
-0.0335518 0.00246478 0.00284773
-0.00606804 -0.00349046 -0.00645451
-0.00458401 -0.0037582 -0.00512494
-0.00851428 -0.00589206 -0.00643572
-0.0053792 -0.00480611 -0.00549273
-0.0224508 -0.0083143 0.00703725
-0.0200951 -0.00784538 0.00878153
-0.028846 0.000115699 -0.00561375
-0.00135384 -0.000781062 0.00350639
-0.00114748 -0.000290734 0.0026581
0 0 0
-0.0329466 -0.000721343 -0.00514618
-0.035 0 0
-0.00606942 -0.000948842 -0.00661377
-0.00253809 -0.000724568 -0.00442542
-0.00104224 -0.000155537 -0.00260349
-0.00708132 0.00604286 -0.00349921
-0.0138868 0.00944396 -0.00317984
-0.0107707 -0.00297161 0.00849768
-0.00374571 -0.00164334 0.00533721
0 0 0
-0.00124946 -0.0026976 -0.00077386
-0.00144473 -0.00340625 -0.00162387
-0.00149522 -0.00379578 -0.00101516
-0.035 0 0
-0.035 0 0
-0.0327673 0.00494884 -0.00173737
-0.00450252 -0.00647113 0.00108907
-0.00130457 -0.00332239 0.000125785
-0.0127604 -0.00816256 0.00698717
-0.0146261 -0.00771427 0.0078064
-0.0151712 -0.0078241 0.00885383
-0.00133576 -0.00324922 0.00167698
0 0 0
-0.0117077 -0.00703442 0.00710483
-0.0117293 -0.00569307 0.00837794
-0.00668269 -0.00238811 0.00631976
-0.00635695 -0.00111896 0.0064223
-0.0135565 -0.00170072 0.00956734
-0.00700724 -0.00359389 0.00612976
-0.010792 -0.00566796 0.00716878
-0.00379173 -0.00380061 0.00398573
-0.0312911 0.004054 -0.00237165
-0.0327924 0.00467567 0.00233999
-0.035 0 0
-0.0333826 0.00351339 0.0026404
-0.0235851 -0.00585675 -0.00742177
-0.0238076 -0.00310014 -0.00882841
0 0 0
-0.00196308 -0.000392387 0.00484662
-0.00133408 0.000203534 0.0035846
-0.00131677 -0.000211298 0.00361736
-0.0150631 0.00799423 0.0090335
-0.0127096 0.00830206 0.00705794
0 0 0
-0.00129273 -0.00338712 0.000713843
-0.00199734 -0.00464666 0.00154526
-0.00134399 -0.00348178 0.00116001
-0.0198716 -0.00771132 -0.00879427
-0.0221216 -0.00827853 -0.00721062
-0.0229487 -0.00719849 -0.00728534
-0.0282854 0.00517426 -0.00261887
-0.0285039 0.00393389 -0.00268348
-0.0278112 0.00655361 7.40961e-05
-0.0203814 -0.00920946 -0.00346711
-0.00618168 -0.00628983 0.00129677
-0.00627715 -0.00628567 5.76878e-05
-0.00347018 -0.00518531 0.00109903
-0.0104789 -0.00847126 0.00135285
-0.00963706 -0.00289136 0.00740605
-0.0098871 -0.00576042 0.00585188
-0.0142176 -0.00782742 0.00641953
-0.00683197 -0.00485615 0.00496967
-0.00876331 -0.00291149 0.00471401