# vtk DataFile Version 3.0
vtk output at time 0.5
ASCII
DATASET UNSTRUCTURED_GRID
POINTS 1331 float
0 0 0 0 0 0.05 0 0 0.1 
0 0 0.15 0 0 0.2 0 0.05 0 
0 0.05 0.05 0 0.05 0.1 0 0.05 0.15 
0 0.05 0.2 0 0.1 0 0 0.1 0.05 
0 0.1 0.1 0 0.1 0.15 0 0.1 0.2 
0 0.15 0 0 0.15 0.05 0 0.15 0.1 
0 0.15 0.15 0 0.15 0.2 0 0.2 0 
0 0.2 0.05 0 0.2 0.1 0 0.2 0.15 
0 0.2 0.2 0.0422216 -0.00552787 -0.00534876 0.0436813 -0.00535818 0.0473261 
0.0446968 -0.00560362 0.10005 0.0439829 -0.00557189 0.152735 0.0420814 -0.00555053 0.20547 
0.0440749 0.047439 -0.00564001 0.0441255 0.0474216 0.205642 0.0444457 0.100166 -0.00556984 
0.0442849 0.100026 0.205461 0.0445233 0.152818 -0.00560417 0.0444517 0.152664 0.205701 
0.0420881 0.205723 -0.00525911 0.0436972 0.205397 0.0474351 0.0447838 0.205577 0.100096 
0.044087 0.205569 0.152718 0.0420241 0.205645 0.205468 0.0874461 -0.00689717 -0.00661522 
0.0876944 -0.00756336 0.0461956 0.0879796 -0.00775599 0.0998699 0.0867758 -0.00760251 0.153611 
0.087358 -0.00695231 0.20679 0.0872944 0.0460738 -0.00725508 0.0872341 0.0461784 0.207618 
0.0877338 0.0999231 -0.00781401 0.0881612 0.0999797 0.207898 0.0871354 0.154035 -0.00793105 
0.0874021 0.153813 0.207869 0.0874915 0.207285 -0.0066092 0.0873977 0.207774 0.0464026 
0.0882672 0.207814 0.1001 0.0869413 0.207561 0.153719 0.087472 0.207033 0.206895 
0.13286 -0.00606313 -0.00563912 0.131161 -0.00607352 0.0472679 0.130148 -0.00581089 0.100188 
0.13094 -0.00588704 0.152745 0.13274 -0.00609806 0.205537 0.131064 0.0472288 -0.00640267 
0.131135 0.0471424 0.206421 0.130064 0.100121 -0.00616257 0.130494 0.100035 0.206163 
0.130198 0.152824 -0.00595896 0.130791 0.152721 0.205837 0.132715 0.20575 -0.00550596 
0.131582 0.205809 0.0473799 0.130635 0.205893 0.10007 0.131268 0.20602 0.152649 
0.132774 0.205762 0.205464 0.175 0 0 0.175 0 0.05 
0.175 0 0.1 0.175 0 0.15 0.175 0 0.2 
0.175 0.05 0 0.175 0.05 0.05 0.175 0.05 0.1 
0.175 0.05 0.15 0.175 0.05 0.2 0.175 0.1 0 
0.175 0.1 0.05 0.175 0.1 0.1 0.175 0.1 0.15 
0.175 0.1 0.2 0.175 0.15 0 0.175 0.15 0.05 
0.175 0.15 0.1 0.175 0.15 0.15 0.175 0.15 0.2 
0.175 0.2 0 0.175 0.2 0.05 0.175 0.2 0.1 
0.175 0.2 0.15 0.175 0.2 0.2 0 0 0.025 
0 0.025 0 0.0205819 -0.00335948 -0.00474297 0.0224052 -0.00418537 0.0222685 
0 0 0.075 0 0.025 0.025 0 0.025 0.05 
0 0.025 0.075 0.0228908 -0.00430426 0.0481921 0 0 0.125 
0 0.025 0.1 0.0227375 -0.00442105 0.0739995 0.0229122 -0.00421985 0.100095 
0.0228212 -0.0042956 0.126159 0 0 0.175 0 0.025 0.125 
0 0.025 0.15 0 0.025 0.175 0.0229819 -0.00423521 0.151861 
0 0.025 0.2 0.0224655 -0.00415077 0.177706 0.0205149 -0.0033455 0.204748 
0 0.05 0.025 0 0.075 0 0 0.075 0.025 
0.0214482 0.0225687 -0.00428334 0.0230127 0.0220313 0.0222802 0.0223179 0.0484207 -0.00402494 
0.0229872 0.0748026 -0.00437286 0 0.05 0.075 0 0.075 0.05 
0.0231217 0.0220922 0.0484237 0.023046 0.0484128 0.0221779 0.0235482 0.0745497 0.0218706 
0.044883 0.0210035 0.047277 0.0454659 0.0207451 0.0736269 0.0449928 0.0473501 0.0208886 
0.0457895 0.07371 0.0204965 0 0.05 0.125 0 0.075 0.075 
0 0.075 0.1 0 0.075 0.125 0.0233075 0.0219452 0.0742275 
0.0234736 0.02201 0.100088 0.0235057 0.0220538 0.125931 0.0456477 0.0206432 0.0999012 
0.0460097 0.0204998 0.126548 0.0462438 0.0736863 0.0467737 0 0.05 0.175 
0 0.075 0.15 0.0233841 0.022135 0.151709 0.0231524 0.0483642 0.177792 
0.0234517 0.0744135 0.178095 0.0456571 0.0207249 0.152878 0.0451784 0.0473178 0.17916 
0.0455736 0.0736314 0.179375 0 0.075 0.175 0 0.075 0.2 
0.0230983 0.0220428 0.177725 0.021429 0.02259 0.204285 0.0223998 0.0483903 0.204033 
0.0229533 0.0746904 0.204395 0 0.1 0.025 0 0.125 0 
0.0230238 0.100282 -0.00421798 0 0.1 0.075 0 0.125 0.025 
0 0.125 0.05 0 0.125 0.075 0.0235347 0.100249 0.0221273 
0.023634 0.125963 0.0220731 0.0462599 0.100015 0.0204153 0.0461747 0.126642 0.0205245 
0 0.1 0.125 0 0.125 0.1 0.0457705 0.04681 0.099937 
0.0461926 0.0468122 0.126508 0.0462059 0.100035 0.0467247 0.0456774 0.100011 0.15333 
0.046341 0.126588 0.0468449 0.0459452 0.126487 0.153185 0.0458001 0.153211 0.100047 
0.0461064 0.153126 0.126605 0.0875744 0.100005 0.100022 0 0.1 0.175 
0 0.125 0.125 0 0.125 0.15 0 0.125 0.175 
0.0234075 0.100144 0.178013 0.0235137 0.125882 0.178068 0.0460284 0.0469352 0.152915 
0.0456999 0.0999651 0.179496 0.0457108 0.126469 0.179423 0.0461347 0.153118 0.152984 
0 0.125 0.2 0.0229458 0.100176 0.204373 0 0.15 0.025 
0 0.175 0 0 0.175 0.025 0.0228423 0.125802 -0.00423511 
0.0227991 0.151759 -0.003898 0.0215438 0.177393 -0.00415347 0.0230416 0.17789 0.0223363 
0 0.15 0.075 0 0.175 0.05 0.0234288 0.15168 0.0222495 
0.0231455 0.177856 0.0484753 0.0457785 0.152951 0.020798 0.0451822 0.179149 0.0473603 
0.0455969 0.179291 0.0736998 0 0.15 0.125 0 0.175 0.075 
0 0.175 0.1 0 0.175 0.125 0.0233452 0.178021 0.0742564 
0.0235039 0.177956 0.100102 0.0235178 0.17797 0.125942 0.0461209 0.152939 0.0469696 
0.0457798 0.179366 0.10002 0.0460465 0.179518 0.126611 0 0.15 0.175 
0 0.175 0.15 0.0233678 0.151613 0.177939 0.0234033 0.177802 0.151709 
0.0455724 0.152794 0.179382 0.0458388 0.179365 0.152935 0 0.175 0.175 
0 0.175 0.2 0.0227503 0.125722 0.204433 0.0227335 0.151674 0.204082 
0.0231289 0.177854 0.177738 0.021475 0.177335 0.204253 0 0.2 0.025 
0.0205737 0.203338 -0.00465356 0.0224075 0.204148 0.0223626 0 0.2 0.075 
0.0229014 0.204266 0.0482346 0 0.2 0.125 0.0227618 0.204369 0.0740519 
0.0229415 0.20418 0.100118 0.022834 0.204293 0.126175 0 0.2 0.175 
0.0230231 0.204144 0.151881 0.0224978 0.20406 0.177678 0.0205074 0.203282 0.204727 
0.0431357 -0.00550989 0.0207955 0.043551 0.0209694 -0.00569106 0.0648179 -0.00640308 -0.00602871 
0.0654923 0.0199176 -0.0063031 0.0442865 -0.00555648 0.0736882 0.0445678 0.0210079 0.0207551 
0.0653161 -0.00629734 0.0201765 0.0657968 -0.0064515 0.0465493 0.0661035 -0.00659913 0.0730705 
0.0661598 0.0200034 0.0200709 0.044389 -0.00558748 0.126383 0.0665064 -0.0067207 0.0998836 
0.0431458 -0.00557369 0.179307 0.0446547 0.0209498 0.179304 0.0662568 -0.0068254 0.126655 
0.0655651 -0.00669132 0.153413 0.0652555 -0.0064078 0.180046 0.0661361 0.0199595 0.180124 
0.0435085 0.0209515 0.205779 0.064699 -0.00643638 0.206262 0.0654148 0.0199227 0.206495 
0.044352 0.0736738 -0.00565782 0.0657675 0.0465475 -0.00652788 0.0443509 0.0736427 0.205634 
0.0657689 0.0466136 0.206674 0.0445683 0.126406 -0.00564403 0.0663014 0.073144 -0.0067807 
0.0663857 0.100026 -0.00689076 0.0663622 0.126774 -0.00693663 0.0444809 0.126285 0.2057 
0.0663231 0.0732369 0.206799 0.0664232 0.0999471 0.206748 0.0664162 0.126657 0.206847 
0.0437264 0.179316 -0.00560644 0.0448116 0.179215 0.0208668 0.0659841 0.153734 -0.00674234 
0.0448075 0.179131 0.17934 0.0436137 0.179156 0.205823 0.0660406 0.15348 0.206795 
0.0430743 0.205636 0.0209209 0.0655754 0.180529 -0.0063107 0.0647604 0.206864 -0.00589328 
0.044344 0.205538 0.0737897 0.0663501 0.180322 0.0200677 0.0653204 0.206662 0.0202952 
0.0657225 0.20666 0.04674 0.0662049 0.206648 0.0732996 0.044465 0.205613 0.126397 
0.0666818 0.206739 0.100038 0.0431401 0.205611 0.179305 0.0662441 0.180151 0.180236 
0.0663936 0.206856 0.126744 0.0657179 0.206711 0.153489 0.0653071 0.206507 0.180113 
0.06549 0.180226 0.206616 0.0647351 0.206581 0.206313 0.0876656 -0.00689066 0.0195825 
0.0874757 0.0193979 -0.00693788 0.11015 -0.00641988 -0.00633887 0.109895 -0.00638387 0.0199097 
0.0878767 -0.00764808 0.0729291 0.0877407 0.0193747 0.0194681 0.087828 0.0461888 0.0193625 
0.109457 -0.00651565 0.0464639 0.10882 0.0465318 0.0197386 0.0877252 -0.00782803 0.126772 
0.087829 0.0461792 0.0463354 0.087829 0.0462581 0.15373 0.109181 -0.00664926 0.0731532 
0.108824 -0.00665483 0.100047 0.109065 -0.00697903 0.126851 0.108478 0.0465392 0.0464593 
0.108228 0.0464892 0.153788 0.129245 0.0468383 0.100137 0.129207 0.0469095 0.12663 
0.0873106 -0.00693493 0.180455 0.0873463 0.0193918 0.180717 0.087649 0.0463063 0.180803 
0.108727 -0.00645052 0.153565 0.108528 0.046448 0.180497 0.0873802 0.019385 0.207188 
0.109586 -0.00639176 0.180002 0.110017 -0.00652423 0.206234 0.0877152 0.0729175 -0.00756869 
0.109581 0.0199069 -0.00653076 0.109255 0.0199596 0.0198235 0.109322 0.0464303 -0.00667288 
0.10896 0.0730882 -0.00680957 0.0878562 0.0730036 0.207766 0.10893 0.0198989 0.180226 
0.109428 0.0198094 0.206517 0.109342 0.0463194 0.206809 0.109131 0.0730238 0.207107 
0.0875119 0.127025 -0.0078092 0.0878514 0.153882 0.0464873 0.1087 0.0998927 -0.00687281 
0.108279 0.15368 0.0466463 0.129322 0.100104 0.0466492 0.129344 0.126483 0.0467729 
0.0879545 0.126988 0.207856 0.0878006 0.15376 0.153648 0.0878256 0.153817 0.180772 
0.108998 0.0998074 0.20724 0.108208 0.153697 0.153419 0.108561 0.153682 0.180327 
0.129122 0.100009 0.153402 0.129151 0.0998442 0.179727 0.12901 0.126365 0.153411 
0.129314 0.12624 0.179766 0.0874631 0.180936 -0.0071008 0.0875786 0.181013 0.0194273 
0.0877507 0.180933 0.0463489 0.108743 0.126949 -0.00665225 0.108548 0.153666 -0.00657988 
0.109365 0.180404 -0.00633069 0.108883 0.180338 0.0200201 0.108541 0.180447 0.0466636 
0.129557 0.152954 0.0470692 0.0872355 0.180589 0.180806 0.0874621 0.18066 0.207334 
0.109059 0.126754 0.207124 0.109029 0.153543 0.206854 0.108836 0.180316 0.18017 
0.109426 0.180236 0.206521 0.129797 0.152775 0.179488 0.0875568 0.207331 0.0196805 
0.110182 0.2068 -0.00599976 0.109865 0.20664 0.020207 0.0879238 0.20778 0.0731639 
0.109308 0.206787 0.0465717 0.0878365 0.207787 0.126933 0.10932 0.206968 0.0732768 
0.109225 0.207139 0.100091 0.109092 0.206837 0.126935 0.129688 0.153202 0.100029 
0.129979 0.179477 0.100043 0.0872988 0.207014 0.180546 0.108739 0.206479 0.15361 
0.109578 0.206461 0.179997 0.11012 0.206602 0.206202 0.131968 -0.00604061 0.0205232 
0.131613 0.0205442 -0.00620376 0.154603 -0.00355424 -0.00507215 0.153684 0.0223126 -0.00470383 
0.130584 -0.00599739 0.0737224 0.130681 0.0205379 0.0202869 0.130153 0.0470195 0.0203249 
0.152645 -0.00434797 0.0220305 0.152072 -0.00437312 0.0479749 0.152304 -0.00459879 0.0738214 
0.152063 0.021795 0.0218392 0.151807 0.021899 0.0479224 0.151727 0.0216594 0.0740147 
[...]
POINT_DATA 1331
VECTORS displacement float
0 0 0
0 0 0
0 0 0
0 0 0
0 0 0
0 0 0
0 0 0
0 0 0
0 0 0
0 0 0
0 0 0
0 0 0
0 0 0
0 0 0
0 0 0
0 0 0
0 0 0
0 0 0
0 0 0
0 0 0
0 0 0
0 0 0
0 0 0
0 0 0
0 0 0
-0.00777837 -0.00552787 -0.00534876
-0.00631871 -0.00535818 -0.00267386
-0.0053032 -0.00560362 4.98514e-05
-0.00601705 -0.00557189 0.00273494
-0.00791858 -0.00555053 0.00546977
-0.00592513 -0.002561 -0.00564001
-0.00587455 -0.00257838 0.00564213
-0.00555428 0.00016565 -0.00556984
-0.00571514 2.61374e-05 0.00546129
-0.00547667 0.00281773 -0.00560417
-0.00554832 0.00266383 0.00570057
-0.00791193 0.00572267 -0.00525911
-0.0063028 0.00539724 -0.00256492
-0.00521617 0.00557654 9.56682e-05
-0.00591301 0.00556915 0.00271773
-0.0079759 0.00564453 0.00546849
-0.0125539 -0.00689717 -0.00661522
-0.0123056 -0.00756336 -0.00380443
-0.0120204 -0.00775599 -0.000130102
-0.0132242 -0.00760251 0.00361136
-0.012642 -0.00695231 0.00678972
-0.0127056 -0.00392618 -0.00725508
-0.0127659 -0.00382165 0.00761772
-0.0122662 -7.69002e-05 -0.00781401
-0.0118388 -2.02917e-05 0.00789792
-0.0128646 0.00403525 -0.00793105
-0.0125979 0.00381262 0.00786863
-0.0125085 0.00728523 -0.0066092
-0.0126023 0.0077737 -0.00359735
-0.0117328 0.0078138 9.9569e-05
-0.0130587 0.00756071 0.00371854
-0.012528 0.00703341 0.00689542
-0.0171398 -0.00606313 -0.00563912
-0.0188387 -0.00607352 -0.00273212
-0.0198518 -0.00581089 0.000188195
-0.0190603 -0.00588704 0.00274516
-0.0172595 -0.00609806 0.0055367
-0.0189359 -0.00277116 -0.00640267
-0.0188646 -0.00285763 0.00642111
-0.0199365 0.00012136 -0.00616257
-0.0195064 3.5467e-05 0.00616319
-0.0198016 0.00282374 -0.00595896
-0.019209 0.00272129 0.00583699
-0.0172846 0.00575009 -0.00550596
-0.0184179 0.00580862 -0.00262006
-0.0193654 0.00589272 6.98808e-05
-0.0187319 0.00601962 0.00264895
-0.0172258 0.00576244 0.00546378
-0.025 0 0
-0.025 0 0
-0.025 0 0
-0.025 0 0
-0.025 0 0
-0.025 0 0
-0.025 0 0
-0.025 0 0
-0.025 0 0
-0.025 0 0
-0.025 0 0
-0.025 0 0
-0.025 0 0
-0.025 0 0
-0.025 0 0
-0.025 0 0
-0.025 0 0
-0.025 0 0
-0.025 0 0
-0.025 0 0
-0.025 0 0
-0.025 0 0
-0.025 0 0
-0.025 0 0
-0.025 0 0
0 0 0
0 0 0
-0.00441815 -0.00335948 -0.00474297
-0.00259479 -0.00418537 -0.0027315
0 0 0
0 0 0
0 0 0
0 0 0
-0.00210923 -0.00430426 -0.00180791
0 0 0
0 0 0
-0.00226247 -0.00442105 -0.00100054
-0.00208784 -0.00421985 9.54489e-05
-0.00217876 -0.0042956 0.00115944
0 0 0
0 0 0
0 0 0
0 0 0
-0.00201814 -0.00423521 0.00186073
0 0 0
-0.0025345 -0.00415077 0.00270638
-0.00448509 -0.0033455 0.00474772
0 0 0
0 0 0
0 0 0
-0.0035518 -0.00243135 -0.00428334
-0.00198729 -0.00296872 -0.00271984
-0.00268212 -0.00157931 -0.00402494
-0.00201282 -0.00019745 -0.00437286
0 0 0
0 0 0
-0.00187833 -0.00290781 -0.00157635
-0.00195398 -0.0015872 -0.00282206
-0.00145184 -0.000450277 -0.00312938
-0.00511696 -0.00399654 -0.00272303
-0.00453413 -0.0042549 -0.00137309
-0.00500724 -0.00264988 -0.00411144
-0.00421053 -0.00128998 -0.0045035
0 0 0
0 0 0
0 0 0
0 0 0
-0.00169252 -0.00305481 -0.000772518
-0.00152641 -0.00299002 8.75866e-05
-0.00149429 -0.00294616 0.000931119
-0.00435228 -0.00435678 -9.87712e-05
-0.00399033 -0.00450021 0.00154755
-0.00375624 -0.0013137 -0.00322633
0 0 0
0 0 0
-0.00161592 -0.00286501 0.00170895
-0.00184764 -0.00163577 0.00279248
-0.00154832 -0.000586498 0.00309493
-0.00434288 -0.00427515 0.00287811
-0.00482158 -0.00268224 0.0041597
-0.00442636 -0.00136858 0.0043755
0 0 0
0 0 0
-0.00190165 -0.00295718 0.0027247
-0.00357095 -0.00240998 0.00428484
-0.00260018 -0.00160968 0.00403251
-0.00204674 -0.000309617 0.00439478
0 0 0
0 0 0
-0.00197619 0.000281926 -0.00421798
0 0 0
0 0 0
0 0 0
0 0 0
-0.00146533 0.000248681 -0.00287269
-0.00136602 0.000962572 -0.00292688
-0.00374006 1.46454e-05 -0.00458467
-0.00382534 0.00164166 -0.00447549
0 0 0
0 0 0
-0.00422951 -0.00318995 -6.30133e-05
-0.00380735 -0.00318782 0.00150805
-0.00379409 3.54055e-05 -0.00327526
-0.00432257 1.13842e-05 0.00332993
-0.00365899 0.00158794 -0.0031551
-0.00405477 0.00148712 0.00318511
-0.00419994 0.00321138 4.68921e-05
-0.00389359 0.00312649 0.00160539
-0.0124256 4.49658e-06 2.20137e-05
0 0 0
0 0 0
0 0 0
0 0 0
-0.00159255 0.000144088 0.0030126
-0.00148625 0.000882288 0.0030677
-0.00397157 -0.00306477 0.00291508
-0.0043001 -3.49047e-05 0.00449647
-0.00428924 0.00146902 0.00442259
-0.00386528 0.00311808 0.00298395
0 0 0
-0.00205418 0.000175748 0.00437263
0 0 0
0 0 0
0 0 0
-0.00215772 0.00080203 -0.00423511
-0.00220087 0.00175911 -0.003898
-0.00345622 0.00239345 -0.00415347
-0.00195845 0.00289039 -0.00266367
0 0 0
0 0 0
-0.00157115 0.00167953 -0.00275048
-0.00185451 0.00285591 -0.00152473
-0.0042215 0.00295054 -0.00420202
-0.00481784 0.00414944 -0.00263965
-0.00440307 0.00429084 -0.00130024
0 0 0
0 0 0
0 0 0
0 0 0
-0.00165478 0.00302073 -0.00074361
-0.00149615 0.00295563 0.000101558
-0.00148223 0.00297017 0.000942005
-0.00387906 0.00293877 -0.00303044
-0.00422018 0.00436614 1.99936e-05
-0.00395348 0.00451842 0.00161064
0 0 0
0 0 0
-0.00163223 0.00161268 0.00293915
-0.00159668 0.00280196 0.00170925
-0.00442761 0.00279365 0.00438161
-0.00416118 0.00436508 0.00293494
0 0 0
0 0 0
-0.0022497 0.000721952 0.00443327
-0.00226646 0.00167389 0.00408221
-0.0018711 0.00285423 0.00273805
-0.00352497 0.00233504 0.00425292
0 0 0
-0.00442628 0.00333819 -0.00465356
-0.00259252 0.00414783 -0.00263738
0 0 0
-0.00209865 0.00426613 -0.00176537
0 0 0
-0.0022382 0.00436863 -0.000948081
-0.00205855 0.00417979 0.000118026
-0.002166 0.00429258 0.00117483
0 0 0
-0.00197694 0.00414447 0.00188075
-0.00250224 0.00405966 0.00267766
-0.00449263 0.00328238 0.00472708
-0.00686432 -0.00550989 -0.00420453
-0.00644898 -0.00403062 -0.00569106
-0.0101822 -0.00640308 -0.00602871
-0.00950773 -0.00508244 -0.0063031
-0.00571352 -0.00555648 -0.00131179
-0.00543225 -0.00399211 -0.00424489
-0.00968386 -0.00629734 -0.00482349
-0.00920319 -0.0064515 -0.00345074
-0.00889646 -0.00659913 -0.00192955
-0.00884022 -0.00499655 -0.00492906
-0.00561097 -0.00558748 0.00138337
-0.00849356 -0.0067207 -0.000116364
-0.00685421 -0.00557369 0.00430723
-0.00534534 -0.0040502 0.0043045
-0.00874316 -0.0068254 0.00165523
-0.00943491 -0.00669132 0.0034129
-0.00974453 -0.0064078 0.00504571
-0.00886394 -0.00504052 0.00512377
-0.00649147 -0.00404846 0.00577884
-0.010301 -0.00643638 0.00626234
-0.00958518 -0.00507735 0.00649522
-0.00564801 -0.00132617 -0.00565782
-0.00923246 -0.00345254 -0.00652788
-0.00564912 -0.00135726 0.00563357
-0.00923108 -0.00338639 0.00667382
-0.00543169 0.00140581 -0.00564403
-0.00869864 -0.00185601 -0.0067807
-0.00861433 2.60192e-05 -0.00689076
-0.00863779 0.00177421 -0.00693663
-0.00551907 0.00128536 0.00570031
-0.00867688 -0.00176312 0.00679938
-0.00857682 -5.28605e-05 0.0067481
-0.00858379 0.00165687 0.00684739
-0.00627357 0.00431622 -0.00560644
-0.00518844 0.00421496 -0.00413318
-0.00901586 0.00373436 -0.00674234
-0.00519253 0.00413096 0.00433991
-0.0063863 0.00415556 0.0058231
-0.00895937 0.00348003 0.00679517
-0.00692567 0.00563644 -0.00407907
-0.00942464 0.00552903 -0.0063107
-0.0102396 0.00686396 -0.00589328
-0.00565597 0.00553782 -0.00121026
-0.0086499 0.00532174 -0.00493227
-0.00967958 0.00666186 -0.00470483
-0.00927756 0.00666047 -0.00326005
-0.00879509 0.00664842 -0.00170044
-0.00553501 0.0056134 0.00139689
-0.00831816 0.00673924 3.84011e-05
-0.00685989 0.00561117 0.00430536
-0.00875591 0.00515117 0.00523568
-0.00860644 0.00685607 0.00174433
-0.00928209 0.00671059 0.0034888
-0.00969292 0.00650661 0.00511268
-0.00951 0.00522596 0.00661624
-0.0102649 0.00658136 0.00631252
-0.0123344 -0.00689066 -0.00541747
-0.0125243 -0.0056021 -0.00693788
-0.0148505 -0.00641988 -0.00633887
-0.0151052 -0.00638387 -0.00509033
-0.0121233 -0.00764808 -0.00207094
-0.0122593 -0.00562532 -0.00553187
-0.012172 -0.00381119 -0.00563752
-0.0155429 -0.00651565 -0.00353609
-0.0161802 -0.00346815 -0.00526145
-0.0122748 -0.00782803 0.00177209
-0.012171 -0.0038208 -0.00366463
-0.012171 -0.00374193 0.00373013
-0.0158187 -0.00664926 -0.00184675
-0.0161765 -0.00665483 4.69379e-05
-0.0159348 -0.00697903 0.00185129
-0.0165222 -0.00346085 -0.00354066
-0.0167725 -0.0035108 0.00378807
-0.0207545 -0.00316167 0.000136823
-0.020793 -0.00309047 0.00163025
-0.0126894 -0.00693493 0.0054552
-0.0126537 -0.0056082 0.00571702
-0.0123511 -0.00369369 0.00580284
-0.0162734 -0.00645052 0.00356511
-0.0164724 -0.00355196 0.00549709
-0.0126198 -0.00561503 0.0071877
-0.0154145 -0.00639176 0.00500183
-0.0149834 -0.00652423 0.00623435
-0.0122848 -0.0020825 -0.00756869
-0.0154186 -0.00509306 -0.00653076
-0.0157449 -0.0050404 -0.00517653
-0.0156776 -0.00356969 -0.00667288
-0.0160405 -0.00191177 -0.00680957
-0.0121438 -0.00199642 0.0077663
-0.0160704 -0.0051011 0.00522612
-0.0155724 -0.00519064 0.00651676
-0.0156584 -0.00368059 0.00680874
-0.0158693 -0.00197617 0.00710662
-0.0124881 0.0020246 -0.0078092
-0.0121486 0.00388151 -0.00351273
-0.0162998 -0.000107287 -0.00687281
-0.0167211 0.00367972 -0.00335372
-0.0206784 0.00010388 -0.00335076
-0.020656 0.00148317 -0.00322711
-0.0120455 0.0019878 0.00785592
-0.0121994 0.00375989 0.00364784
-0.0121744 0.0038167 0.0057719
-0.0160018 -0.000192585 0.00724034
-0.0167916 0.00369654 0.00341917
-0.0164393 0.00368172 0.0053272
-0.0208785 8.66079e-06 0.003402
-0.0208488 -0.000155833 0.0047274
-0.0209905 0.00136505 0.0034109
-0.0206859 0.00124043 0.00476648
-0.0125369 0.00593643 -0.0071008
-0.0124214 0.00601262 -0.00557273
-0.0122493 0.00593299 -0.00365112
-0.0162573 0.00194912 -0.00665225
-0.016452 0.00366582 -0.00657988
-0.0156347 0.00540414 -0.00633069
-0.0161173 0.00533765 -0.0049799
-0.0164586 0.00544688 -0.0033364
-0.0204434 0.00295407 -0.00293076
-0.0127645 0.0055887 0.00580589
-0.0125379 0.0056604 0.00733443
-0.0159414 0.00175443 0.00712443
-0.0159715 0.00354321 0.00685403
-0.0161644 0.005316 0.0051701
-0.0155737 0.00523626 0.00652051
-0.0202027 0.00277544 0.00448808
-0.0124432 0.00733093 -0.00531949
-0.0148182 0.00680044 -0.00599976
-0.0151354 0.00664016 -0.00479297
-0.0120763 0.00778017 -0.00183608
-0.0156917 0.00678665 -0.00342833
-0.0121635 0.00778748 0.00193253
-0.01568 0.00696758 -0.00172319
-0.015775 0.00713903 9.11492e-05
-0.0159081 0.00683664 0.00193527
-0.0203122 0.00320234 2.89057e-05
-0.020021 0.0044773 4.30114e-05
-0.0127012 0.00701379 0.00554637
-0.0162607 0.00647938 0.00360981
-0.0154221 0.00646093 0.00499746
-0.0148795 0.00660196 0.00620167
-0.0180315 -0.00604061 -0.00447685
-0.0183871 -0.00445576 -0.00620376
-0.020397 -0.00355424 -0.00507215
-0.0213156 -0.00268741 -0.00470383
-0.0194157 -0.00599739 -0.00127763
-0.0193188 -0.00446214 -0.00471309
-0.0198475 -0.00298049 -0.00467509
-0.0223545 -0.00434797 -0.00296951
-0.0229278 -0.00437312 -0.00202506
-0.0226959 -0.00459879 -0.00117862
-0.0229373 -0.00320495 -0.0031608
-0.0231934 -0.00310099 -0.00207764
-0.0232734 -0.00334059 -0.000985318
-0.0233206 -0.00194461 -0.00205863
-0.0234845 -0.00210879 -0.000967251
-0.0194964 -0.00597454 0.00155482
-0.0203112 -0.0029813 -0.00304495
-0.0228249 -0.00447146 5.51217e-05
-0.0233946 -0.003406 2.28719e-05
-0.0236164 -0.00240664 1.38862e-06
-0.0236002 -0.00253286 0.000849306
-0.0181985 -0.00599727 0.00440082
-0.0194792 -0.00447262 0.00470861
-0.0199871 -0.00305416 0.00469502
-0.0226767 -0.00469452 0.0012317
-0.022998 -0.00432848 0.00201597
-0.02241 -0.0043403 0.00288966
-0.0233216 -0.0034284 0.000997595
-0.0232816 -0.00307754 0.00203842
-0.0229904 -0.00320765 0.00308581
-0.0234522 -0.00193587 0.00199555
-0.0184655 -0.004551 0.00614908
-0.0204717 -0.00358453 0.00495521
-0.0213682 -0.00273113 0.00460283
-0.0194495 -0.00128602 -0.0063115
-0.0224699 -0.0018395 -0.00443227
-0.0231634 -0.0018319 -0.00331192
-0.023312 -0.000858685 -0.00327795
-0.0192423 -0.0013681 0.00634137
-0.0232265 -0.00187681 0.00317384
-0.0224794 -0.00190752 0.00429851
-0.0233682 -0.00088993 0.00307613
-0.0198358 0.0016563 -0.00605019
-0.022708 -0.000674593 -0.00473908
-0.0230711 -8.26868e-05 -0.00462511
-0.0234539 -5.08747e-05 -0.00358224
-0.0235205 0.000119238 -0.0025315
-0.0230506 0.000495715 -0.00474955
-0.0234241 0.000853467 -0.00376374
-0.0235788 0.000897829 -0.00284705
-0.0192802 0.00150969 0.00601833
-0.0227102 -0.00065334 0.0045021
-0.0233618 6.04215e-05 0.00309608
-0.0229962 -0.000152816 0.00441901
-0.0235158 0.000618734 0.00332817
-0.0229491 0.000296398 0.00457254
-0.0187413 0.00426663 -0.00585927
-0.0195768 0.00426331 -0.0044538
-0.0199917 0.00438139 -0.00286723
-0.0225419 0.00182292 -0.00444394
-0.0231361 0.00191888 -0.00341291
-0.0233116 0.00194141 -0.00236643
-0.0196129 0.00427593 0.00446938
-0.0185921 0.00421951 0.0059114
-0.0231854 0.00164317 0.0030541
-0.0224041 0.00159916 0.00424837
-0.0179656 0.00574187 -0.00428363
-0.021486 0.00264037 -0.00468218
-0.0205289 0.00345573 -0.0051018
-0.0190101 0.00590664 -0.00123223
-0.0229185 0.00314321 -0.00320038
-0.0231676 0.00310247 -0.00216395
-0.0232581 0.00304427 -0.00115607
-0.0222825 0.00433607 -0.00308376
-0.0227756 0.00452574 -0.0020442
-0.0226473 0.00446904 -0.00122612
-0.019112 0.0061521 0.00124866
-0.0229543 0.00284436 7.19093e-06
-0.0226682 0.00423223 3.14e-05
-0.0180885 0.00573853 0.00431671
-0.0232703 0.00278411 0.00109494
-0.0231727 0.00283927 0.00216666
-0.0230261 0.0030037 0.00308391
-0.0227378 0.00424572 0.0012969
-0.0229278 0.00424425 0.00199137
-0.0223974 0.00418353 0.00297088
-0.0214683 0.00247262 0.00457937
-0.0205155 0.00334868 0.0050061
-0.025 0 0
-0.025 0 0
-0.025 0 0
-0.025 0 0
-0.025 0 0
-0.025 0 0
-0.025 0 0
-0.025 0 0
-0.025 0 0
-0.025 0 0
-0.025 0 0
-0.025 0 0
-0.025 0 0
-0.025 0 0
-0.025 0 0
-0.025 0 0
-0.025 0 0
-0.025 0 0
-0.025 0 0
-0.025 0 0
-0.025 0 0
-0.025 0 0
-0.025 0 0
-0.025 0 0
-0.025 0 0
-0.025 0 0
-0.025 0 0
-0.025 0 0
-0.025 0 0
-0.025 0 0
-0.025 0 0
-0.025 0 0
-0.025 0 0
-0.025 0 0
-0.025 0 0
-0.025 0 0
-0.025 0 0
-0.025 0 0
-0.025 0 0
-0.025 0 0
-0.025 0 0
-0.025 0 0
-0.025 0 0
-0.025 0 0
-0.025 0 0
-0.025 0 0
-0.025 0 0
-0.025 0 0
-0.025 0 0
-0.025 0 0
-0.025 0 0
-0.025 0 0
-0.025 0 0
-0.025 0 0
-0.025 0 0
-0.025 0 0
-0.0204206 0.00480877 -0.00459325
-0.0221232 0.00202937 -0.00397351
-0.0107427 -0.00675285 0.00469664
-0.02345 0.00369003 -0.00180269
-0.025 0 0
-0.0236581 0.00261856 -0.00265188
0 0 0
-0.025 0 0
0 0 0
-0.00746227 0.00631843 -0.000990062
-0.025 0 0
-0.02291 -0.000161537 0.00270928
-0.00895457 0.00639949 -0.00490696
-0.0106301 0.00626926 -0.00639402
-0.025 0 0
-0.0214882 -0.00135214 0.00521598
-0.0240606 -0.000770983 0.00261116
-0.00448048 -0.00462421 -0.00424503
-0.00279834 -0.00195151 -0.00367888
-0.00973337 -0.0013682 -0.00716565
-0.0166156 -0.0043937 -0.00644111
-0.0106768 -0.00578942 -0.00638712
-0.00892455 -0.00605143 -0.00504695
-0.00317657 0.00490723 0.000818211
-0.000937906 -0.00186954 -0.00170386
-0.0082523 -0.00425662 -0.006142
-0.00825182 -0.00519867 -0.0051507
0 0 0
-0.0240879 -0.00043068 0.00273002
-0.025 0 0
-0.0236528 -0.00052705 0.00369899
-0.00395669 0.00276389 -0.00475225
0 0 0
-0.00126848 -0.0025108 -0.00235132
-0.00144949 -0.0035198 -0.00153621
-0.00105052 -0.0026274 -0.00168479
-0.0105519 0.00694478 -0.00444997
-0.0102775 0.00607965 -0.00558762
-0.00188229 -0.0012883 -0.0024916
-0.025 0 0
-0.00250457 -0.00296238 -0.000624356
0 0 0
-0.00128179 0.000604451 -0.00352241
0 0 0
-0.0170778 0.00451743 -0.00620611
-0.0205625 0.00288769 0.00210891
-0.010058 -0.00714881 0.00225469
-0.0208409 0.00274064 0.0051473
-0.016113 0.0062266 0.00519536
-0.0143857 0.00594283 0.00661094
-0.00994599 0.00607101 -0.00457532
-0.00340446 -0.00115032 -0.00498024
-0.00122847 -0.00113991 -0.00236592
-0.00404932 0.00267803 0.00488256
0 0 0
-0.00139748 -0.00345307 0.00153026
0 0 0
-0.000994209 -0.00257845 0.00166596
-0.025 0 0
-0.00363969 0.00363856 -0.00399184
-0.00452976 0.00463333 -0.00413286
-0.00273963 0.0018991 -0.00359015
-0.00124866 0.00244144 -0.00228393
-0.00142351 0.00344028 -0.00147993
-0.00102602 0.00252251 -0.00163159
0 0 0
0 0 0
-0.000922998 0.00122924 -0.00229152
-0.000902818 0.00175829 -0.00167371
-0.00298761 0.00292369 -0.00373468
0 0 0
0 0 0
-0.000916615 -0.000486371 -0.00262965
0 0 0
-0.000864601 -8.0123e-05 -0.00266241
-0.000859441 0.000210786 -0.00254871
-0.00126685 -0.000160727 -0.00356727
0 0 0
-0.00136353 0.000565159 0.003728
-0.0104762 -0.00661056 -0.00459648
-0.00996743 -0.00577614 -0.00463442
-0.0103176 -0.00570175 -0.00557173
-0.00277943 0.00185376 0.00361133
-0.00361748 0.00359153 0.0041063
-0.00452186 0.00456574 0.00423767
-0.0171648 0.00230337 0.00669578
0 0 0
-0.000970624 0.00253574 -0.00117541
0 0 0
-0.00100277 0.00282965 -0.000732377
-0.00141504 0.00369071 -0.00101262
-0.0242202 0.000290148 0.00216512
0 0 0
-0.0014359 -0.0037386 -0.00105479
-0.00632848 0.00458224 0.00110386
-0.00321725 0.00131425 0.0050587
-0.00090959 0.000737987 0.00263232
-0.000927041 0.000460008 0.0027688
-0.00322667 -0.00500117 -0.000624742
-0.000947169 -0.00273544 -0.000351989
-0.00336561 -0.00123408 0.00500596
0 0 0
-0.000884819 0.00258164 0.000535495
-0.00132926 0.00350726 0.00116689
0 0 0
-0.000911203 0.00265013 0.000881057
-0.000773264 0.00194923 0.000768003
-0.000888629 0.0023991 0.00126323
-0.00459106 -0.00473235 -0.000870427
-0.00756635 -0.00630629 -0.00116051
-0.002577 -0.00400606 -0.000645145
-0.00317807 0.0014326 -0.00486303
-0.000860097 0.00077917 -0.00244965
-0.000866795 0.000503019 -0.00258894
-0.00299635 0.00285507 0.00386048
-0.000953362 0.00119234 0.00243646
-0.00254141 0.00282425 0.0030402
-0.000860149 0.00173218 0.00172506
0 0 0
-0.0012054 0.00237335 0.00228084
-0.00135697 0.00334024 0.0015186
-0.000963982 0.00245423 0.00165968
-0.000887487 -0.00185849 0.00169915
-0.00116156 -0.0011814 0.00234219
-0.00122868 -0.00246453 0.00230235
-0.00281189 -0.00192529 0.00364346
-0.00450598 -0.00461753 0.00426109
-0.0240244 0.00246268 0.00146948
-0.025 0 0
-0.00185283 0.00265939 0.000896454
0 0 0
-0.00181547 0.00190159 0.00176691
-0.0218541 0.00290901 0.00418111
-0.0240249 0.00185576 0.00209697
-0.00421903 -0.00264523 -0.00487797
-0.00320174 -0.00282637 -0.00385739
-0.00597127 -0.00444978 -0.00481632
-0.00370643 -0.00362388 -0.0041126
-0.016179 -0.00623044 0.00524866
-0.0144249 -0.00584225 0.00656094
-0.0205917 8.70061e-05 -0.00420336
-0.00093394 -0.000590387 0.00266255
-0.000816479 -0.000226652 0.00201786
0 0 0
-0.0236493 -0.000512516 -0.00386513
-0.025 0 0
-0.00436362 -0.000728256 -0.00501453
-0.00182234 -0.000552902 -0.0033663
-0.000736386 -0.000136604 -0.00198925
-0.00507158 0.00455116 -0.00262044
-0.00994006 0.00707255 -0.00237403
-0.00767333 -0.00220741 0.00640249
-0.00265752 -0.00123338 0.00403623
0 0 0
-0.000884806 -0.00204033 -0.000581996
-0.000984974 -0.00258808 -0.00120805
-0.00101281 -0.00286159 -0.000755057
-0.025 0 0
-0.025 0 0
-0.0235242 0.00372627 -0.00126968
-0.00319548 -0.0049123 0.000808625
-0.000902872 -0.00254028 9.33902e-05
-0.00899257 -0.00612433 0.00525623
-0.010421 -0.00573831 0.00582757
-0.0107693 -0.00581818 0.00663192
-0.000912541 -0.00247035 0.00125373
0 0 0
-0.00828831 -0.00525372 0.0053393
-0.00831025 -0.00423826 0.00629934
-0.00477317 -0.00177357 0.00476899
-0.0045527 -0.000833861 0.00484554
-0.00968469 -0.00125772 0.00717673
-0.004994 -0.00267536 0.0046148
-0.00768343 -0.00422006 0.00537963
-0.00268276 -0.00284645 0.00299732
-0.0223736 0.00305676 -0.00174521
-0.0235498 0.0035127 0.00170615
-0.025 0 0
-0.0239356 0.00263689 0.00192941
-0.0169321 -0.00436411 -0.00554658
-0.0170619 -0.00230412 -0.00662359
0 0 0
-0.00132121 -0.000283048 0.00367849
-0.000917852 0.000140953 0.00271719
-0.000905127 -0.000171893 0.00274583
-0.0107038 0.005959 0.00676069
-0.00897299 0.00624515 0.00530672
0 0 0
-0.000893195 -0.0025737 0.000528536
-0.00134139 -0.00351732 0.00114931
-0.00091845 -0.00263649 0.00086901
-0.0142713 -0.00575393 -0.00657392
-0.015954 -0.00621352 -0.00537535
-0.0165174 -0.00537673 -0.00544124
-0.0202042 0.00387518 -0.00193821
-0.0203271 0.00293649 -0.00198964
-0.019885 0.00492312 4.94115e-05
-0.0145927 -0.0068979 -0.00256324
-0.00444513 -0.0047581 0.000958274
-0.00449819 -0.00475202 3.64105e-05
-0.00247173 -0.00393738 0.000813323
-0.00750349 -0.00639824 0.00100031
-0.00691269 -0.00214071 0.00555763
-0.00710202 -0.00428496 0.00437547