# vtk DataFile Version 3.0
vtk output at time 0.3
ASCII
DATASET UNSTRUCTURED_GRID
POINTS 1331 float
0 0 0 0 0 0.05 0 0 0.1 
0 0 0.15 0 0 0.2 0 0.05 0 
0 0.05 0.05 0 0.05 0.1 0 0.05 0.15 
0 0.05 0.2 0 0.1 0 0 0.1 0.05 
0 0.1 0.1 0 0.1 0.15 0 0.1 0.2 
0 0.15 0 0 0.15 0.05 0 0.15 0.1 
0 0.15 0.15 0 0.15 0.2 0 0.2 0 
0 0.2 0.05 0 0.2 0.1 0 0.2 0.15 
0 0.2 0.2 0.0454409 -0.00351705 -0.00335196 0.0462597 -0.00340794 0.0483315 
0.0468232 -0.00355876 0.100025 0.0464274 -0.00354413 0.151717 0.0453615 -0.00351312 0.203445 
0.0464862 0.0483778 -0.00357155 0.0465147 0.048389 0.203573 0.0466691 0.100086 -0.0035629 
0.0465901 0.100012 0.203475 0.0467248 0.151766 -0.00356218 0.0466982 0.151664 0.203603 
0.0453561 0.203634 -0.00331459 0.0462613 0.20343 0.0483905 0.0468726 0.203542 0.10005 
0.0464892 0.203542 0.1517 0.0453271 0.203575 0.203446 0.092464 -0.00432379 -0.00415612 
0.0926024 -0.00474634 0.0476312 0.0927698 -0.00489847 0.0999237 0.0920424 -0.00476947 0.15224 
0.0924157 -0.00435335 0.20425 0.092369 0.0475554 -0.00456544 0.0923387 0.0476231 0.204779 
0.0926151 0.0999492 -0.00494922 0.0928845 0.0999909 0.204978 0.0922557 0.152499 -0.00500823 
0.0924307 0.152367 0.204939 0.0924867 0.204553 -0.00414994 0.0924184 0.204869 0.0477518 
0.0929333 0.20492 0.100059 0.092146 0.204745 0.152295 0.0924823 0.204404 0.204303 
0.139594 -0.00381603 -0.00352343 0.138609 -0.00384417 0.0483144 0.138044 -0.00367614 0.100116 
0.138487 -0.00373065 0.151692 0.139523 -0.00383873 0.203462 0.138574 0.0482751 -0.00402152 
0.138621 0.0482244 0.204048 0.137988 0.100072 -0.00389632 0.138263 0.100028 0.203912 
0.138046 0.151759 -0.0037393 0.138431 0.151714 0.203675 0.139515 0.203642 -0.00343588 
0.138859 0.2037 0.0483833 0.138342 0.203745 0.100038 0.13868 0.203819 0.151629 
0.13954 0.203654 0.203405 0.185 0 0 0.185 0 0.05 
0.185 0 0.1 0.185 0 0.15 0.185 0 0.2 
0.185 0.05 0 0.185 0.05 0.05 0.185 0.05 0.1 
0.185 0.05 0.15 0.185 0.05 0.2 0.185 0.1 0 
0.185 0.1 0.05 0.185 0.1 0.1 0.185 0.1 0.15 
0.185 0.1 0.2 0.185 0.15 0 0.185 0.15 0.05 
0.185 0.15 0.1 0.185 0.15 0.15 0.185 0.15 0.2 
0.185 0.2 0 0.185 0.2 0.05 0.185 0.2 0.1 
0.185 0.2 0.15 0.185 0.2 0.2 0 0 0.025 
0 0.025 0 0.0224807 -0.00213025 -0.00302545 0.0235222 -0.00264478 0.0232937 
0 0 0.075 0 0.025 0.025 0 0.025 0.05 
0 0.025 0.075 0.0238009 -0.00274678 0.0488764 0 0 0.125 
0 0.025 0.1 0.023697 -0.00282644 0.0743843 0.0237954 -0.00270516 0.100057 
0.0237372 -0.00275026 0.125715 0 0 0.175 0 0.025 0.125 
0 0.025 0.15 0 0.025 0.175 0.0238481 -0.00270136 0.151161 
0 0.025 0.2 0.023552 -0.00261588 0.176697 0.0224432 -0.0021119 0.203036 
0 0.05 0.025 0 0.075 0 0 0.075 0.025 
0.0229594 0.0234777 -0.00271766 0.0238608 0.0231453 0.0232892 0.0234589 0.0489998 -0.00257352 
0.0238323 0.0748519 -0.00279947 0 0.05 0.075 0 0.075 0.05 
0.023898 0.0231603 0.0490146 0.0238565 0.0489943 0.0232139 0.0241482 0.0747041 0.0230087 
0.046941 0.0224765 0.0482931 0.0472839 0.022304 0.0741405 0.0470103 0.048328 0.0224042 
0.0474555 0.0741743 0.0221507 0 0.05 0.125 0 0.075 0.075 
0 0.075 0.1 0 0.075 0.125 0.0240108 0.023067 0.0745249 
0.0240967 0.0230979 0.100054 0.0241287 0.0231243 0.125582 0.0473839 0.0222363 0.0999383 
0.0475888 0.022154 0.125962 0.0477031 0.0741598 0.0479788 0 0.05 0.175 
0 0.075 0.15 0.0240544 0.0231881 0.151072 0.0239161 0.0489767 0.176767 
0.0240918 0.07463 0.176962 0.0473918 0.0223074 0.151806 0.0471123 0.0483283 0.177623 
0.0473423 0.0741471 0.177764 0 0.075 0.175 0 0.075 0.2 
0.0239073 0.0231584 0.176716 0.0229466 0.0235014 0.202723 0.0235047 0.048995 0.202578 
0.0238197 0.0747958 0.202807 0 0.1 0.025 0 0.125 0 
0.0238513 0.100163 -0.00270467 0 0.1 0.075 0 0.125 0.025 
0 0.125 0.05 0 0.125 0.075 0.0241322 0.100142 0.023164 
0.0241929 0.125601 0.023133 0.0477405 0.100001 0.0220824 0.0476789 0.126016 0.0221551 
0 0.1 0.125 0 0.125 0.1 0.0474242 0.0479941 0.0999584 
0.0476675 0.0480034 0.125934 0.0476749 0.10002 0.0479291 0.0473711 0.100009 0.152088 
0.0477478 0.125982 0.0480126 0.0475291 0.125925 0.151991 0.0474383 0.152014 0.100024 
0.0476194 0.151957 0.125991 0.0925237 0.100002 0.100008 0 0.1 0.175 
0 0.125 0.125 0 0.125 0.15 0 0.125 0.175 
0.0240596 0.100084 0.17691 0.0241247 0.125549 0.176939 0.0475852 0.0480954 0.151832 
0.0474178 0.0999812 0.177847 0.0474201 0.12591 0.177793 0.0476425 0.151936 0.151873 
0 0.125 0.2 0.023818 0.100105 0.202795 0 0.15 0.025 
0 0.175 0 0 0.175 0.025 0.0237416 0.125502 -0.00270797 
0.0237183 0.151101 -0.00248959 0.023001 0.176504 -0.00264099 0.0238741 0.176811 0.0233232 
0 0.15 0.075 0 0.175 0.05 0.024074 0.151055 0.0232542 
0.0239074 0.176806 0.0490452 0.0474603 0.151851 0.0223395 0.0471009 0.177612 0.0483432 
0.0473534 0.177713 0.0741839 0 0.15 0.125 0 0.175 0.075 
0 0.175 0.1 0 0.175 0.125 0.0240301 0.176914 0.0745417 
0.0241141 0.176882 0.100061 0.0241359 0.17689 0.125586 0.047637 0.151844 0.0481013 
0.0474572 0.177766 0.100009 0.0476103 0.177855 0.125996 0 0.15 0.175 
0 0.175 0.15 0.0240415 0.151011 0.176853 0.0240655 0.176774 0.151068 
0.0473449 0.151744 0.177758 0.0475007 0.177749 0.151834 0 0.175 0.175 
0 0.175 0.2 0.0237023 0.125455 0.202822 0.0236912 0.151045 0.202594 
0.0239244 0.176786 0.176717 0.0229683 0.176462 0.202699 0 0.2 0.025 
0.0224653 0.202122 -0.00297566 0.0235157 0.202626 0.0233493 0 0.2 0.075 
0.0238026 0.202723 0.0489004 0 0.2 0.125 0.0237072 0.202796 0.0744149 
0.023811 0.202682 0.10007 0.0237452 0.202749 0.125722 0 0.2 0.175 
0.0238702 0.202646 0.151169 0.0235655 0.202566 0.176673 0.0224346 0.202082 0.203019 
0.0459792 -0.00350858 0.022373 0.046208 0.0224467 -0.00359343 0.0689524 -0.00404118 -0.00380312 
0.0693392 0.0218025 -0.0039798 0.0466088 -0.00354047 0.074171 0.0467922 0.0224783 0.0223323 
0.069241 -0.00397641 0.021971 0.0694984 -0.00407821 0.0478429 0.0696744 -0.00418301 0.073792 
0.0697164 0.0218608 0.0219019 0.0466567 -0.00356403 0.125868 0.0699017 -0.00426563 0.0999238 
0.0459804 -0.00353848 0.177706 0.0468361 0.0224559 0.177709 0.0697484 -0.00432512 0.126032 
0.0693426 -0.00423174 0.152137 0.0691988 -0.00403704 0.178174 0.0696958 0.0218449 0.178219 
0.0461821 0.0224554 0.203653 0.0688843 -0.00404675 0.203954 0.0692944 0.0218214 0.204099 
0.0466443 0.0741555 -0.00360862 0.0694803 0.047829 -0.00412781 0.046651 0.0741549 0.203585 
0.0694828 0.0478882 0.204215 0.0467513 0.125875 -0.00360689 0.0697851 0.0738263 -0.00430004 
0.0698146 0.100006 -0.00438735 0.0697992 0.126095 -0.00441405 0.0467179 0.125806 0.203622 
0.0698047 0.0739006 0.204301 0.0698582 0.0999688 0.204278 0.0698508 0.126032 0.204332 
0.0462944 0.177722 -0.00354969 0.0469204 0.177655 0.0223939 0.0695833 0.152337 -0.00427953 
0.04692 0.177598 0.177727 0.0462385 0.177614 0.203677 0.0696358 0.152174 0.204289 
0.0459321 0.20359 0.0224372 0.0693751 0.178469 -0.00399446 0.0689139 0.204324 -0.0037295 
0.0466356 0.203527 0.0742295 0.0698094 0.178335 0.0218943 0.0692319 0.2042 0.022037 
0.0694438 0.204204 0.0479539 0.0697261 0.204207 0.0739309 0.0467013 0.203579 0.125872 
0.0700009 0.204271 0.100015 0.0459725 0.203568 0.177703 0.0697507 0.178228 0.178283 
0.0698292 0.204341 0.126081 0.0694358 0.204244 0.152176 0.069224 0.204103 0.178207 
0.0693355 0.178277 0.20417 0.068905 0.204144 0.203978 0.0925903 -0.00432486 0.0216179 
0.0924795 0.0214995 -0.00436096 0.116025 -0.00404519 -0.00398988 0.115867 -0.00402793 0.0218077 
0.0927099 -0.00481242 0.0737122 0.0926323 0.0214866 0.0215391 0.0926829 0.0476242 0.0214647 
0.115626 -0.00411903 0.0477954 0.115268 0.0478306 0.0216942 0.0926093 -0.00492598 0.126099 
0.0926803 0.0476131 0.0477034 0.0926801 0.047663 0.152328 0.115469 -0.00421057 0.0738526 
0.115267 -0.00421688 0.100032 0.115405 -0.00442462 0.126152 0.115077 0.0478317 0.0477856 
0.114939 0.0478047 0.152367 0.137552 0.0480149 0.100082 0.13753 0.0480649 0.12602 
0.0923809 -0.00434301 0.178398 0.0924015 0.0215005 0.17857 0.0925768 0.0477014 0.178628 
0.115194 -0.004066 0.152218 0.115103 0.0477835 0.178449 0.0924274 0.021496 0.204506 
0.115693 -0.00402271 0.178131 0.115946 -0.0041039 0.203922 0.0926142 0.0737052 -0.00477719 
0.115692 0.0218027 -0.0041168 0.115504 0.0218366 0.0217498 0.115549 0.0477649 -0.0042111 
0.115345 0.0738057 -0.00430616 0.0927045 0.0737625 0.204883 0.115324 0.0218053 0.178276 
0.115605 0.0217486 0.204107 0.115566 0.0477011 0.204295 0.115455 0.0737708 0.204489 
0.092484 0.126256 -0.0049342 0.0926824 0.152418 0.0477987 0.115193 0.0999303 -0.00435128 
0.114959 0.1523 0.0479057 0.137596 0.100065 0.0478982 0.137601 0.125931 0.0479797 
0.0927593 0.126237 0.204941 0.0926663 0.152347 0.152273 0.0926755 0.152378 0.178608 
0.115387 0.0998793 0.204578 0.114934 0.152314 0.152124 0.11513 0.152301 0.178325 
0.137497 0.100005 0.152126 0.137497 0.0999073 0.177979 0.137438 0.125865 0.152111 
0.137591 0.125782 0.177994 0.0924622 0.178697 -0.00446385 0.0925232 0.178747 0.0215076 
0.0926201 0.178699 0.0477158 0.115214 0.126214 -0.00420187 0.115083 0.152281 -0.00415285 
0.115562 0.178383 -0.00399386 0.115283 0.178343 0.0218716 0.115098 0.178418 0.0479178 
0.137725 0.151853 0.0481797 0.0923268 0.178491 0.178619 0.0924732 0.178531 0.204588 
0.115423 0.126104 0.204487 0.115391 0.15222 0.204308 0.115263 0.178332 0.178223 
0.115602 0.178281 0.204089 0.137879 0.15174 0.177803 0.0925165 0.204589 0.0216766 
0.116035 0.20427 -0.00378683 0.115841 0.204182 0.0219899 0.0927282 0.204883 0.0738525 
0.115532 0.204276 0.0478563 0.0926768 0.204895 0.126188 0.11555 0.204396 0.0739219 
0.115508 0.204514 0.100051 0.115425 0.204318 0.126194 0.137825 0.152006 0.100015 
0.137969 0.17783 0.100022 0.0923691 0.204395 0.178443 0.115203 0.204082 0.152238 
0.115682 0.204072 0.178117 0.116002 0.204153 0.203892 0.139059 -0.00381578 0.0222169 
0.138869 0.0222153 -0.00389304 0.162602 -0.00223595 -0.00320744 0.162094 0.0233453 -0.0029503 
0.138288 -0.00379474 0.0742106 0.13833 0.0222068 0.0220586 0.138044 0.0481429 0.0220734 
0.161485 -0.0027272 0.0231786 0.16116 -0.00275989 0.0487686 0.161309 -0.00291133 0.0742857 
0.161158 0.0230146 0.0230522 0.161046 0.0230698 0.0487303 0.161005 0.0229171 0.0744073 
[...]
POINT_DATA 1331
VECTORS displacement float
0 0 0
0 0 0
0 0 0
0 0 0
0 0 0
0 0 0
0 0 0
0 0 0
0 0 0
0 0 0
0 0 0
0 0 0
0 0 0
0 0 0
0 0 0
0 0 0
0 0 0
0 0 0
0 0 0
0 0 0
0 0 0
0 0 0
0 0 0
0 0 0
0 0 0
-0.00455911 -0.00351705 -0.00335196
-0.00374032 -0.00340794 -0.00166846
-0.00317681 -0.00355876 2.49373e-05
-0.00357265 -0.00354413 0.0017173
-0.00463849 -0.00351312 0.00344496
-0.00351385 -0.00162219 -0.00357155
-0.00348532 -0.00161095 0.00357273
-0.00333094 8.56369e-05 -0.0035629
-0.00340986 1.20361e-05 0.0034745
-0.00327524 0.00176631 -0.00356218
-0.00330185 0.00166446 0.00360305
-0.00464389 0.00363435 -0.00331459
-0.00373865 0.00343031 -0.00160949
-0.0031274 0.00354159 4.97851e-05
-0.00351081 0.00354223 0.00169994
-0.00467291 0.00357532 0.00344597
-0.00753603 -0.00432379 -0.00415612
-0.0073976 -0.00474634 -0.00236879
-0.00723018 -0.00489847 -7.62977e-05
-0.00795763 -0.00476947 0.00223963
-0.00758433 -0.00435335 0.00425017
-0.00763104 -0.00244456 -0.00456544
-0.00766132 -0.00237688 0.00477948
-0.00738493 -5.07925e-05 -0.00494922
-0.00711549 -9.11048e-06 0.00497849
-0.00774433 0.00249929 -0.00500823
-0.00756934 0.00236745 0.00493888
-0.00751326 0.00455268 -0.00414994
-0.0075816 0.0048691 -0.00224823
-0.00706665 0.00491985 5.87838e-05
-0.00785397 0.00474527 0.00229456
-0.00751773 0.00440402 0.00430287
-0.0104059 -0.00381603 -0.00352343
-0.0113912 -0.00384417 -0.00168555
-0.011956 -0.00367614 0.000115774
-0.0115127 -0.00373065 0.00169172
-0.0104774 -0.00383873 0.00346239
-0.0114261 -0.00172491 -0.00402152
-0.0113793 -0.00177558 0.00404805
-0.0120123 7.16756e-05 -0.00389632
-0.011737 2.82241e-05 0.00391211
-0.0119541 0.00175899 -0.0037393
-0.0115689 0.00171392 0.0036751
-0.0104854 0.00364165 -0.00343588
-0.0111412 0.00370037 -0.00161673
-0.0116582 0.00374454 3.78995e-05
-0.0113197 0.00381887 0.00162867
-0.0104598 0.00365436 0.00340465
-0.015 0 0
-0.015 0 0
-0.015 0 0
-0.015 0 0
-0.015 0 0
-0.015 0 0
-0.015 0 0
-0.015 0 0
-0.015 0 0
-0.015 0 0
-0.015 0 0
-0.015 0 0
-0.015 0 0
-0.015 0 0
-0.015 0 0
-0.015 0 0
-0.015 0 0
-0.015 0 0
-0.015 0 0
-0.015 0 0
-0.015 0 0
-0.015 0 0
-0.015 0 0
-0.015 0 0
-0.015 0 0
0 0 0
0 0 0
-0.0025193 -0.00213025 -0.00302545
-0.0014778 -0.00264478 -0.0017063
0 0 0
0 0 0
0 0 0
0 0 0
-0.00119912 -0.00274678 -0.00112362
0 0 0
0 0 0
-0.00130304 -0.00282644 -0.000615686
-0.00120463 -0.00270516 5.71618e-05
-0.00126281 -0.00275026 0.000714659
0 0 0
0 0 0
0 0 0
0 0 0
-0.00115187 -0.00270136 0.00116136
0 0 0
-0.00144805 -0.00261588 0.0016973
-0.00255683 -0.0021119 0.00303592
0 0 0
0 0 0
0 0 0
-0.00204056 -0.00152229 -0.00271766
-0.00113923 -0.00185471 -0.00171079
-0.00154107 -0.0010002 -0.00257352
-0.00116774 -0.000148063 -0.00279947
0 0 0
0 0 0
-0.00110195 -0.00183969 -0.000985419
-0.00114346 -0.00100571 -0.00178611
-0.000851836 -0.000295949 -0.00199126
-0.00305895 -0.00252349 -0.00170689
-0.00271606 -0.00269596 -0.000859522
-0.00298971 -0.00167199 -0.00259576
-0.00254446 -0.000825748 -0.00284933
0 0 0
0 0 0
0 0 0
0 0 0
-0.00098918 -0.00193297 -0.000475075
-0.000903326 -0.00190206 5.36939e-05
-0.000871341 -0.00187568 0.000582176
-0.00261614 -0.00276375 -6.16839e-05
-0.0024112 -0.00284597 0.000961953
-0.00229686 -0.000840203 -0.00202124
0 0 0
0 0 0
-0.000945582 -0.00181188 0.0010717
-0.00108392 -0.00102334 0.00176722
-0.000908179 -0.000369975 0.00196218
-0.00260817 -0.00269263 0.00180604
-0.00288769 -0.00167173 0.00262348
-0.0026577 -0.000852902 0.00276394
0 0 0
0 0 0
-0.00109269 -0.00184156 0.00171587
-0.00205341 -0.00149856 0.00272298
-0.00149531 -0.00100499 0.00257817
-0.00118033 -0.000204251 0.00280733
0 0 0
0 0 0
-0.00114872 0.000162535 -0.00270467
0 0 0
0 0 0
0 0 0
0 0 0
-0.000867783 0.000142349 -0.00183598
-0.000807112 0.000600876 -0.00186703
-0.00225955 9.06393e-07 -0.0029176
-0.00232112 0.00101639 -0.00284495
0 0 0
0 0 0
-0.0025758 -0.00200586 -4.15598e-05
-0.00233246 -0.00199655 0.000933629
-0.00232512 2.02818e-05 -0.00207086
-0.0026289 8.56357e-06 0.00208823
-0.00225218 0.00098189 -0.00198738
-0.00247092 0.000925304 0.00199063
-0.00256171 0.00201363 2.43745e-05
-0.00238058 0.00195672 0.000991043
-0.00747626 2.04484e-06 7.79732e-06
0 0 0
0 0 0
0 0 0
0 0 0
-0.000940353 8.41822e-05 0.00191005
-0.000875319 0.000548656 0.00193927
-0.0024148 -0.00190456 0.00183223
-0.00258219 -1.87957e-05 0.00284665
-0.0025799 0.000910147 0.00279255
-0.00235748 0.00193636 0.00187276
0 0 0
-0.00118198 0.000104663 0.00279511
0 0 0
0 0 0
0 0 0
-0.0012584 0.000501855 -0.00270797
-0.00128166 0.00110129 -0.00248959
-0.00199899 0.00150361 -0.00264099
-0.00112589 0.00181061 -0.00167679
0 0 0
0 0 0
-0.000926043 0.00105513 -0.00174578
-0.00109263 0.00180618 -0.000954796
-0.00253972 0.00185124 -0.00266054
-0.00289911 0.00261233 -0.00165684
-0.00264663 0.00271265 -0.000816086
0 0 0
0 0 0
0 0 0
0 0 0
-0.000969947 0.00191369 -0.000458295
-0.000885937 0.0018821 6.14844e-05
-0.000864067 0.00189012 0.000586141
-0.00236297 0.00184391 -0.00189872
-0.00254284 0.00276575 8.93836e-06
-0.00238966 0.00285485 0.000995924
0 0 0
0 0 0
-0.000958453 0.00101075 0.00185303
-0.000934527 0.00177435 0.00106784
-0.00265509 0.00174414 0.00275772
-0.00249926 0.00274899 0.00183364
0 0 0
0 0 0
-0.00129775 0.000454997 0.00282158
-0.00130875 0.00104534 0.00259424
-0.00107562 0.00178646 0.00171747
-0.00203171 0.00146167 0.00269857
0 0 0
-0.00253466 0.00212223 -0.00297566
-0.00148426 0.00262593 -0.00165071
0 0 0
-0.00119736 0.00272303 -0.00109963
0 0 0
-0.00129275 0.00279552 -0.00058507
-0.00118901 0.00268154 7.00169e-05
-0.00125476 0.00274868 0.000721939
0 0 0
-0.00112981 0.00264613 0.00116854
-0.0014345 0.00256601 0.00167297
-0.00256542 0.00208216 0.00301866
-0.00402077 -0.00350858 -0.00262702
-0.00379201 -0.00255329 -0.00359343
-0.00604755 -0.00404118 -0.00380312
-0.00566077 -0.00319745 -0.0039798
-0.00339115 -0.00354047 -0.000829004
-0.00320776 -0.00252168 -0.00266772
-0.00575903 -0.00397641 -0.00302897
-0.0055016 -0.00407821 -0.00215714
-0.00532557 -0.00418301 -0.00120802
-0.00528357 -0.0031392 -0.00309807
-0.0033433 -0.00356403 0.000867705
-0.00509828 -0.00426563 -7.61901e-05
-0.00401962 -0.00353848 0.00270563
-0.00316392 -0.00254414 0.00270924
-0.00525161 -0.00432512 0.00103239
-0.00565736 -0.00423174 0.00213726
-0.00580122 -0.00403704 0.00317373
-0.00530417 -0.00315508 0.00321937
-0.00381793 -0.00254456 0.00365325
-0.00611566 -0.00404675 0.0039537
-0.00570562 -0.00317861 0.00409891
-0.00335573 -0.000844498 -0.00360862
-0.00551967 -0.00217103 -0.00412781
-0.00334902 -0.000845071 0.00358544
-0.00551721 -0.00211182 0.00421533
-0.00324874 0.000875453 -0.00360689
-0.00521492 -0.00117373 -0.00430004
-0.0051854 6.43081e-06 -0.00438735
-0.00520083 0.00109516 -0.00441405
-0.00328205 0.000805619 0.00362197
-0.00519527 -0.00109941 0.00430124
-0.00514178 -3.12317e-05 0.00427768
-0.00514917 0.00103207 0.00433169
-0.00370558 0.0027218 -0.00354969
-0.00307963 0.00265471 -0.00260608
-0.00541673 0.00233701 -0.00427953
-0.00308001 0.00259825 0.00272673
-0.00376147 0.00261366 0.00367668
-0.0053642 0.00217381 0.00428871
-0.00406791 0.00358952 -0.0025628
-0.00562495 0.00346948 -0.00399446
-0.00608608 0.0043235 -0.0037295
-0.00336436 0.00352692 -0.000770487
-0.00519059 0.00333485 -0.00310566
-0.00576813 0.00419994 -0.00296303
-0.00555618 0.00420422 -0.0020461
-0.00527389 0.00420691 -0.00106915
-0.00329869 0.00357929 0.000871679
-0.00499905 0.00427071 1.50543e-05
-0.00402749 0.00356825 0.00270259
-0.00524931 0.00322781 0.00328278
-0.00517082 0.00434055 0.00108097
-0.00556424 0.00424411 0.00217574
-0.005776 0.00410328 0.00320682
-0.00566452 0.00327686 0.0041698
-0.00609505 0.0041437 0.00397838
-0.00740973 -0.00432486 -0.00338206
-0.00752054 -0.00350055 -0.00436096
-0.0089755 -0.00404519 -0.00398988
-0.00913271 -0.00402793 -0.00319227
-0.00729007 -0.00481242 -0.00128778
-0.00736769 -0.00351345 -0.00346085
-0.00731712 -0.00237576 -0.00353534
-0.00937391 -0.00411903 -0.00220462
-0.00973204 -0.00216936 -0.00330578
-0.00739066 -0.00492598 0.00109885
-0.00731968 -0.00238692 -0.00229662
-0.00731994 -0.00233697 0.0023282
-0.0095312 -0.00421057 -0.00114745
-0.00973322 -0.00421688 3.21778e-05
-0.00959544 -0.00442462 0.00115163
-0.00992289 -0.0021683 -0.00221439
-0.0100606 -0.00219533 0.00236675
-0.012448 -0.00198511 8.22729e-05
-0.0124704 -0.00193506 0.00101962
-0.00761909 -0.00434301 0.00339811
-0.0075985 -0.00349948 0.00356994
-0.00742317 -0.00229856 0.0036279
-0.00980633 -0.004066 0.0022179
-0.00989746 -0.00221654 0.00344891
-0.00757264 -0.003504 0.00450616
-0.00930685 -0.00402271 0.00313147
-0.00905366 -0.0041039 0.0039225
-0.00738581 -0.00129479 -0.00477719
-0.00930789 -0.00319734 -0.0041168
-0.00949565 -0.00316344 -0.00325017
-0.00945075 -0.00223512 -0.0042111
-0.00965453 -0.00119432 -0.00430616
-0.00729548 -0.00123752 0.00488323
-0.00967613 -0.00319471 0.0032759
-0.0093952 -0.00325138 0.00410672
-0.00943363 -0.00229887 0.00429508
-0.00954454 -0.00122919 0.00448895
-0.00751598 0.00125625 -0.0049342
-0.00731765 0.00241771 -0.00220127
-0.00980679 -6.96669e-05 -0.00435128
-0.0100406 0.00230014 -0.00209433
-0.0124038 6.52106e-05 -0.00210184
-0.012399 0.000931186 -0.00202033
-0.00724075 0.00123682 0.00494056
-0.00733366 0.00234701 0.00227278
-0.00732449 0.00237772 0.00360785
-0.00961337 -0.000120656 0.00457826
-0.010066 0.00231395 0.00212359
-0.00986968 0.00230147 0.00332546
-0.0125027 4.79118e-06 0.00212645
-0.0125035 -9.27396e-05 0.0029785
-0.0125616 0.000864881 0.00211146
-0.012409 0.000781619 0.00299381
-0.00753777 0.00369706 -0.00446385
-0.00747677 0.003747 -0.0034924
-0.00737993 0.00369873 -0.00228415
-0.00978558 0.00121401 -0.00420187
-0.00991662 0.00228112 -0.00415285
-0.00943768 0.00338281 -0.00399386
-0.00971719 0.00334282 -0.00312843
-0.00990165 0.00341777 -0.00208221
-0.0122745 0.00185286 -0.00182027
-0.00767324 0.00349114 0.00361856
-0.00752677 0.0035314 0.00458806
-0.0095771 0.00110428 0.00448682
-0.00960879 0.00221975 0.0043085
-0.00973725 0.00333238 0.00322255
-0.00939815 0.00328069 0.0040894
-0.0121206 0.00174021 0.00280293
-0.00748346 0.00458948 -0.00332338
-0.00896516 0.00427011 -0.00378683
-0.00915892 0.00418193 -0.00301013
-0.00727182 0.00488307 -0.00114749
-0.00946777 0.00427619 -0.00214372
-0.00732321 0.00489516 0.00118831
-0.0094497 0.0043964 -0.00107814
-0.00949203 0.00451375 5.11439e-05
-0.00957466 0.00431797 0.00119419
-0.0121749 0.00200611 1.46825e-05
-0.0120309 0.00282973 2.20792e-05
-0.0076309 0.00439538 0.00344281
-0.00979703 0.00408248 0.00223769
-0.0093176 0.00407247 0.0031169
-0.00899828 0.00415347 0.00389151
-0.0109415 -0.00381578 -0.00278312
-0.011131 -0.00278466 -0.00389304
-0.0123976 -0.00223595 -0.00320744
-0.0129062 -0.00165472 -0.0029503
-0.0117125 -0.00379474 -0.000789374
-0.0116701 -0.00279324 -0.00294137
-0.0119561 -0.0018571 -0.00292664
-0.0135155 -0.0027272 -0.00182141
-0.0138403 -0.00275989 -0.00123137
-0.0136908 -0.00291133 -0.000714331
-0.0138422 -0.00198542 -0.00194778
-0.0139544 -0.00193023 -0.00126966
-0.0139953 -0.00208288 -0.000592667
-0.0140162 -0.00120204 -0.00127131
-0.0141025 -0.00131095 -0.000593113
-0.0117609 -0.00378936 0.000953911
-0.0122057 -0.00186401 -0.00189768
-0.0137715 -0.00284243 3.52328e-05
-0.0140695 -0.0021355 1.64742e-05
-0.0141772 -0.00150022 3.1202e-08
-0.0141701 -0.00156966 0.000529482
-0.0110339 -0.00378771 0.00273758
-0.0117594 -0.00279829 0.00294567
-0.0120301 -0.00189806 0.00295093
-0.0136831 -0.00297117 0.000749557
-0.0138783 -0.00273642 0.00123507
-0.0135448 -0.00272208 0.00178244
-0.0140287 -0.0021431 0.000610095
-0.0140054 -0.00191969 0.00125738
-0.0138704 -0.00198842 0.00191186
-0.0140929 -0.0012014 0.00124665
-0.0111748 -0.00284423 0.00386534
-0.012437 -0.00225429 0.00314246
-0.012932 -0.00168535 0.00289872
-0.0117219 -0.000799402 -0.0039775
-0.0135577 -0.00112867 -0.00278561
-0.0139376 -0.00112896 -0.00204892
-0.0140211 -0.000527005 -0.0020465
-0.0115892 -0.000845281 0.00401344
-0.0139717 -0.00115863 0.00197904
-0.0135551 -0.00117284 0.00271603
-0.0140438 -0.000544975 0.00193514
-0.0119691 0.00102559 -0.00382343
-0.0136945 -0.000412981 -0.00298266
-0.0139134 -4.39596e-05 -0.00292116
-0.014103 -2.97076e-05 -0.00223749
-0.0141259 6.85026e-05 -0.00157443
-0.0139084 0.000315166 -0.00298706
-0.0140952 0.000539148 -0.00233716
-0.0141693 0.00055754 -0.00176283
-0.0116138 0.000950203 0.00381176
-0.0136784 -0.000405509 0.00285513
-0.014034 3.99738e-05 0.00195708
-0.0138512 -8.6625e-05 0.00281469
-0.0141388 0.000384405 0.00210164
-0.0138242 0.00019987 0.00290825
-0.0113383 0.00267715 -0.00367794
-0.0118262 0.00268287 -0.0027746
-0.0120399 0.00276198 -0.00177876
-0.0136289 0.00113046 -0.0027963
-0.0139383 0.00119513 -0.00211728
-0.0140164 0.0012131 -0.00145681
-0.0118321 0.00268951 0.00277906
-0.0112434 0.00265975 0.00370557
-0.0139365 0.00103218 0.00191943
-0.0135104 0.00100935 0.00269878
-0.0109061 0.00365286 -0.00266184
-0.0130085 0.00162879 -0.00292755
-0.0124712 0.00217632 -0.00322103
-0.0114634 0.00375416 -0.000765081
-0.0138373 0.00195038 -0.00197274
-0.0139488 0.00193783 -0.00131946
-0.0139831 0.00191621 -0.000696663
-0.0134788 0.00272642 -0.00189066
-0.0137548 0.00286678 -0.00124223
-0.0136486 0.00284943 -0.000740096
-0.0115244 0.00390368 0.000764829
-0.0138026 0.00180958 1.77481e-06
-0.0136677 0.00271411 1.68519e-05
-0.0109729 0.00364554 0.0026751
-0.01398 0.00175812 0.000655914
-0.0139429 0.00179014 0.00132335
-0.0138868 0.00188145 0.00190386
-0.0136961 0.00271168 0.000781442
-0.0138297 0.00269822 0.00120563
-0.0135312 0.00264425 0.00181736
-0.0129865 0.00155073 0.00287156
-0.0124589 0.00213103 0.00315721
-0.015 0 0
-0.015 0 0
-0.015 0 0
-0.015 0 0
-0.015 0 0
-0.015 0 0
-0.015 0 0
-0.015 0 0
-0.015 0 0
-0.015 0 0
-0.015 0 0
-0.015 0 0
-0.015 0 0
-0.015 0 0
-0.015 0 0
-0.015 0 0
-0.015 0 0
-0.015 0 0
-0.015 0 0
-0.015 0 0
-0.015 0 0
-0.015 0 0
-0.015 0 0
-0.015 0 0
-0.015 0 0
-0.015 0 0
-0.015 0 0
-0.015 0 0
-0.015 0 0
-0.015 0 0
-0.015 0 0
-0.015 0 0
-0.015 0 0
-0.015 0 0
-0.015 0 0
-0.015 0 0
-0.015 0 0
-0.015 0 0
-0.015 0 0
-0.015 0 0
-0.015 0 0
-0.015 0 0
-0.015 0 0
-0.015 0 0
-0.015 0 0
-0.015 0 0
-0.015 0 0
-0.015 0 0
-0.015 0 0
-0.015 0 0
-0.015 0 0
-0.015 0 0
-0.015 0 0
-0.015 0 0
-0.015 0 0
-0.015 0 0
-0.0123678 0.00301129 -0.00285581
-0.0134338 0.00128019 -0.00248171
-0.0064263 -0.00424526 0.00294415
-0.0141768 0.00230271 -0.0010967
-0.015 0 0
-0.014284 0.00161835 -0.00162715
0 0 0
-0.015 0 0
0 0 0
-0.0044723 0.00400799 -0.000627429
-0.015 0 0
-0.0137307 -9.80601e-05 0.00170196
-0.00530521 0.0040406 -0.00309843
-0.00635358 0.0039304 -0.00403782
-0.015 0 0
-0.0129438 -0.00083108 0.0032996
-0.0144681 -0.000474637 0.00164165
-0.00259695 -0.00291402 -0.00267026
-0.00155148 -0.00124196 -0.00232841
-0.00584909 -0.000864598 -0.00453986
-0.0100334 -0.00275228 -0.00405921
-0.00637195 -0.00363847 -0.00402764
-0.00527809 -0.00382839 -0.00317413
-0.00187787 0.00312684 0.000504632
-0.000534434 -0.00116726 -0.00106445
-0.00490687 -0.00268123 -0.00388141
-0.00489769 -0.0032774 -0.00324452
0 0 0
-0.0144858 -0.000261855 0.00171924
-0.015 0 0
-0.0142628 -0.000311136 0.00233832
-0.00231721 0.00174056 -0.00301948
0 0 0
-0.000697053 -0.00156314 -0.0014698
-0.000786677 -0.00221045 -0.000956803
-0.000576399 -0.00164373 -0.00104419
-0.0063175 0.00436444 -0.00279472
-0.00616 0.00380872 -0.00351666
-0.00116032 -0.000822267 -0.00156429
-0.015 0 0
-0.00149397 -0.00188291 -0.000390167
0 0 0
-0.000709707 0.000358906 -0.0022397
0 0 0
-0.0103066 0.00282311 -0.00391367
-0.0123236 0.00181542 0.00130172
-0.00604236 -0.00451835 0.00140412
-0.0125933 0.00172902 0.00323275
-0.00975728 0.00392692 0.00324566
-0.00867359 0.00372372 0.00414422
-0.00597823 0.00380217 -0.00287139
-0.00199953 -0.000742703 -0.00316845
-0.00069894 -0.000719095 -0.00150595
-0.00236244 0.00167984 0.00309311
0 0 0
-0.00076149 -0.00216855 0.000956517
0 0 0
-0.00054683 -0.00161139 0.00103479
-0.015 0 0
-0.00210351 0.00229535 -0.00251125
-0.00263374 0.00292623 -0.00260714
-0.00152895 0.00121483 -0.00227568
-0.000690621 0.00152443 -0.00142947
-0.000778532 0.00216495 -0.000922829
-0.000567982 0.0015812 -0.0010138
0 0 0
0 0 0
-0.000529195 0.000767977 -0.00145832
-0.000516022 0.00110151 -0.00104618
-0.00175015 0.00183264 -0.0023641
0 0 0
0 0 0
-0.000524498 -0.00031683 -0.00167276
0 0 0
-0.000490228 -6.57222e-05 -0.00169265
-0.000491681 0.000120181 -0.00162343
-0.000701217 -0.00010227 -0.00226865
0 0 0
-0.000743947 0.000336173 0.00235962
-0.00626031 -0.00416176 -0.00287934
-0.00597385 -0.00362593 -0.00290329
-0.00616876 -0.00358048 -0.00350153
-0.00154897 0.00118156 0.00228843
-0.00208912 0.00226014 0.00257822
-0.00262533 0.00287935 0.00267089
-0.0103234 0.00144673 0.00422337
0 0 0
-0.000546133 0.00161391 -0.000732475
0 0 0
-0.000559546 0.00178458 -0.000455845
-0.00077213 0.00233416 -0.000627129
-0.0145508 0.000182985 0.00136457
0 0 0
-0.000779708 -0.00236079 -0.000651529
-0.00383995 0.00287778 0.000676293
-0.0018931 0.000817021 0.00320659
-0.00051446 0.000460303 0.00166665
-0.000519822 0.000281244 0.00174928
-0.00190161 -0.00317962 -0.000389928
-0.000533923 -0.00173103 -0.000215025
-0.00197276 -0.000777961 0.00317982
0 0 0
-0.000502397 0.00164022 0.000328242
-0.000729149 0.00222186 0.000720177
0 0 0
-0.000510157 0.00167518 0.000546604
-0.000448524 0.00123854 0.000483581
-0.00049914 0.00152739 0.000783738
-0.00274091 -0.00300268 -0.000544755
-0.0045266 -0.00400603 -0.000729632
-0.00152043 -0.00254127 -0.000398761
-0.00188416 0.000890623 -0.00309949
-0.00049261 0.000487291 -0.00156024
-0.000492288 0.000307358 -0.00164588
-0.00175218 0.00178596 0.00243328
-0.000541443 0.000743816 0.00154248
-0.00149911 0.00177391 0.00190784
-0.000489421 0.00108533 0.00107473
0 0 0
-0.000668269 0.00147926 0.00142632
-0.000744017 0.00210383 0.000944489
-0.000533231 0.00153955 0.00102823
-0.000505172 -0.00115675 0.00106357
-0.000661139 -0.000736177 0.00149121
-0.000678463 -0.0015287 0.00144355
-0.00156296 -0.00121767 0.002312
-0.00261252 -0.00290176 0.00269073
-0.0144595 0.00155884 0.000893414
-0.015 0 0
-0.00113957 0.00167398 0.000557402
0 0 0
-0.00112803 0.0011819 0.00109975
-0.0131802 0.00182419 0.00261015
-0.0144581 0.00116266 0.0012851
-0.00245112 -0.00167144 -0.00309251
-0.00186325 -0.00177477 -0.00243497
-0.00350805 -0.00281419 -0.00302599
-0.00213233 -0.00228279 -0.0025813
-0.00978778 -0.00392391 0.00329142
-0.00869404 -0.0036623 0.00412716
-0.0123677 5.2422e-05 -0.00264165
-0.000529581 -0.000371752 0.00168999
-0.000480967 -0.000148891 0.00127796
0 0 0
-0.0142756 -0.000299546 -0.00242693
-0.015 0 0
-0.00261963 -0.000468261 -0.0031857
-0.00108938 -0.000353156 -0.00213805
-0.000429266 -9.86162e-05 -0.00126697
-0.00303271 0.00287454 -0.00164446
-0.00596833 0.00445858 -0.00148878
-0.00458261 -0.00137627 0.00405552
-0.00156948 -0.000774092 0.00255676
0 0 0
-0.000519401 -0.00128793 -0.000367374
-0.000551264 -0.00164601 -0.00075061
-0.000562964 -0.00180223 -0.000469124
-0.015 0 0
-0.015 0 0
-0.0142022 0.00234536 -0.000772311
-0.00189025 -0.003128 0.0005007
-0.000514321 -0.00162688 5.70881e-05
-0.00532216 -0.00386108 0.00331385
-0.00623273 -0.00359337 0.00365813
-0.0064245 -0.00364369 0.00417643
-0.000511391 -0.00157001 0.000779958
0 0 0
-0.00492303 -0.00329737 0.00336591
-0.00494051 -0.00265119 0.00397911
-0.00284857 -0.00110392 0.00301926
-0.00272341 -0.000520982 0.00306753
-0.00580845 -0.000782028 0.00453429
-0.00297501 -0.00166928 0.00291491
-0.00458378 -0.0026395 0.00338942
-0.00158111 -0.00178366 0.00188589
-0.0134545 0.00192985 -0.00107315
-0.0142193 0.00220671 0.00103375
-0.015 0 0
-0.014426 0.00165115 0.00117378
-0.0102189 -0.00273352 -0.00348748
-0.0102802 -0.00143986 -0.00418481
0 0 0
-0.000725026 -0.000167677 0.0023358
-0.000519432 8.06643e-05 0.00172339
-0.000510185 -0.000116529 0.0017427
-0.00638758 0.0037366 0.00424928
-0.00531473 0.00394148 0.00333972
0 0 0
-0.000507444 -0.00163475 0.000325551
-0.000736 -0.00222666 0.000711356
-0.000515142 -0.00166659 0.000541444
-0.00860656 -0.00361452 -0.00413946
-0.00966086 -0.00391984 -0.00337167
-0.00998694 -0.00337673 -0.00341869
-0.0121446 0.00243998 -0.0012037
-0.0122014 0.00184234 -0.00123866
-0.0119568 0.00311616 2.59558e-05