# vtk DataFile Version 3.0
vtk output at time 0.6
ASCII
DATASET UNSTRUCTURED_GRID
POINTS 1331 float
0 0 0 0 0 0.05 0 0 0.1 
0 0 0.15 0 0 0.2 0 0.05 0 
0 0.05 0.05 0 0.05 0.1 0 0.05 0.15 
0 0.05 0.2 0 0.1 0 0 0.1 0.05 
0 0.1 0.1 0 0.1 0.15 0 0.1 0.2 
0 0.15 0 0 0.15 0.05 0 0.15 0.1 
0 0.15 0.15 0 0.15 0.2 0 0.2 0 
0 0.2 0.05 0 0.2 0.1 0 0.2 0.15 
0 0.2 0.2 0.0405547 -0.00643289 -0.00628269 0.0423866 -0.00624694 0.0468559 
0.0436416 -0.006539 0.100064 0.042761 -0.00649046 0.153201 0.0403831 -0.0064797 0.206402 
0.0428599 0.0470152 -0.00658833 0.0429218 0.0469707 0.20659 0.0433487 0.100213 -0.00647344 
0.0431393 0.100037 0.206368 0.0434333 0.153303 -0.00653105 0.0433304 0.153129 0.206661 
0.040405 0.206664 -0.00615825 0.0424145 0.206294 0.0469938 0.04375 0.206506 0.100122 
0.0428864 0.206486 0.153187 0.0403194 0.206583 0.206397 0.0849377 -0.00810316 -0.00776938 
0.0852456 -0.00889058 0.045512 0.0855957 -0.00909459 0.0998437 0.0841679 -0.00894374 0.15427 
0.0848284 -0.00817477 0.207988 0.0847584 0.0453693 -0.00851829 0.0846798 0.0454872 0.208953 
0.0853108 0.0999141 -0.00914714 0.0858029 0.0999748 0.209267 0.0846043 0.154772 -0.0092963 
0.0849025 0.154507 0.209249 0.0849981 0.208574 -0.00776323 0.0848994 0.209143 0.0457639 
0.0859516 0.209173 0.100121 0.0843645 0.20889 0.154407 0.0849687 0.208271 0.208125 
0.129562 -0.00709695 -0.0066349 0.127465 -0.00709954 0.0467684 0.126209 -0.00679624 0.10022 
0.127193 -0.00687827 0.153246 0.129418 -0.00713727 0.20651 0.127332 0.0467398 -0.00751037 
0.12741 0.0466337 0.207516 0.126113 0.100144 -0.00720721 0.126611 0.100031 0.207191 
0.126308 0.15332 -0.0069933 0.126981 0.153179 0.206837 0.129382 0.206707 -0.00648461 
0.127976 0.206765 0.0469006 0.126793 0.206881 0.100087 0.127593 0.207021 0.15314 
0.129463 0.206711 0.20644 0.17 0 0 0.17 0 0.05 
0.17 0 0.1 0.17 0 0.15 0.17 0 0.2 
0.17 0.05 0 0.17 0.05 0.05 0.17 0.05 0.1 
0.17 0.05 0.15 0.17 0.05 0.2 0.17 0.1 0 
0.17 0.1 0.05 0.17 0.1 0.1 0.17 0.1 0.15 
0.17 0.1 0.2 0.17 0.15 0 0.17 0.15 0.05 
0.17 0.15 0.1 0.17 0.15 0.15 0.17 0.15 0.2 
0.17 0.2 0 0.17 0.2 0.05 0.17 0.2 0.1 
0.17 0.2 0.15 0.17 0.2 0.2 0 0 0.025 
0 0.025 0 0.0195766 -0.00391877 -0.00550966 0.0218209 -0.00488996 0.0217963 
0 0 0.075 0 0.025 0.025 0 0.025 0.05 
0 0.025 0.075 0.0224178 -0.00500446 0.0478733 0 0 0.125 
0 0.025 0.1 0.0222448 -0.00513749 0.0738164 0.0224585 -0.00489728 0.100114 
0.0223543 -0.00498738 0.126369 0 0 0.175 0 0.025 0.125 
0 0.025 0.15 0 0.025 0.175 0.0225343 -0.0049239 0.152181 
0 0.025 0.2 0.021899 -0.00485719 0.178164 0.0194945 -0.00391378 0.205504 
0 0.05 0.025 0 0.075 0 0 0.075 0.025 
0.0206532 0.0221529 -0.00499524 0.0225728 0.0215158 0.0218158 0.0217257 0.048162 -0.00467629 
0.0225593 0.0747932 -0.00507509 0 0.05 0.075 0 0.075 0.05 
0.0227292 0.0216069 0.0481483 0.0226347 0.0481515 0.0217074 0.0232472 0.0744849 0.0213616 
0.0438641 0.0203266 0.0468048 0.0445661 0.0200328 0.0733878 0.0439922 0.046903 0.0201917 
0.0449759 0.0735026 0.0197428 0 0.05 0.125 0 0.075 0.075 
0 0.075 0.1 0 0.075 0.125 0.0229509 0.0214363 0.0740859 
0.0231623 0.0215192 0.100103 0.0231897 0.0215756 0.126092 0.0447938 0.0199142 0.0998843 
0.0452374 0.0197444 0.126822 0.0455432 0.0734724 0.0462181 0 0.05 0.175 
0 0.075 0.15 0.0230454 0.0216582 0.152001 0.0227659 0.0480814 0.178259 
0.0231296 0.0743142 0.178607 0.0448013 0.0199986 0.153373 0.0442227 0.0468443 0.179867 
0.0447021 0.0733896 0.180115 0 0.075 0.175 0 0.075 0.2 
0.0226798 0.0215228 0.178185 0.0206321 0.0221655 0.20499 0.0218266 0.0481105 0.204685 
0.0225107 0.0746474 0.205108 0 0.1 0.025 0 0.125 0 
0.0226038 0.100344 -0.00489398 0 0.1 0.075 0 0.125 0.025 
0 0.125 0.05 0 0.125 0.075 0.0232367 0.100304 0.0216645 
0.0233551 0.12613 0.0216011 0.0455348 0.100026 0.0196604 0.0454451 0.126937 0.0197868 
0 0.1 0.125 0 0.125 0.1 0.0449767 0.0462585 0.0999289 
0.0454877 0.0462607 0.126779 0.0455068 0.100045 0.0461708 0.0448669 0.100012 0.153909 
0.0456751 0.126875 0.0463091 0.045186 0.126749 0.153741 0.04502 0.153771 0.10006 
0.0453846 0.153669 0.126894 0.0851134 0.100005 0.100031 0 0.1 0.175 
0 0.125 0.125 0 0.125 0.15 0 0.125 0.175 
0.0230806 0.100174 0.178512 0.0232072 0.126037 0.178578 0.0452745 0.0463934 0.153415 
0.0448533 0.0999566 0.180251 0.0448725 0.126732 0.180169 0.04541 0.153669 0.153496 
0 0.125 0.2 0.0224982 0.100212 0.205081 0 0.15 0.025 
0 0.175 0 0 0.175 0.025 0.0223871 0.12594 -0.00491945 
0.0223333 0.15206 -0.00452912 0.0207866 0.177798 -0.00483799 0.0226114 0.178388 0.0218835 
0 0.15 0.075 0 0.175 0.05 0.0231059 0.151965 0.0217972 
0.0227633 0.178334 0.0482106 0.0449527 0.153458 0.0200962 0.0442424 0.179859 0.0469059 
0.0447326 0.180014 0.0734759 0 0.15 0.125 0 0.175 0.075 
0 0.175 0.1 0 0.175 0.125 0.0229998 0.178521 0.0741218 
0.0232 0.178438 0.100121 0.0232044 0.178452 0.126107 0.0453899 0.153446 0.0464483 
0.0449595 0.180098 0.100027 0.0452836 0.180278 0.1269 0 0.15 0.175 
0 0.175 0.15 0.0230287 0.151889 0.178433 0.023069 0.178266 0.152005 
0.0446986 0.153282 0.180128 0.0450192 0.180105 0.153445 0 0.175 0.175 
0 0.175 0.2 0.0222618 0.125844 0.20516 0.0222426 0.151964 0.204753 
0.0227179 0.178347 0.178206 0.020696 0.177736 0.204955 0 0.2 0.025 
0.0195813 0.203888 -0.00539842 0.0218323 0.204841 0.0219099 0 0.2 0.075 
0.0224351 0.20496 0.0479262 0 0.2 0.125 0.0222787 0.205074 0.0738806 
0.0224963 0.204848 0.100142 0.0223699 0.204982 0.126389 0 0.2 0.175 
0.0225859 0.204816 0.15221 0.021944 0.204742 0.178137 0.0194932 0.203828 0.205483 
0.0416704 -0.0064131 0.0200577 0.0421889 0.0202999 -0.00665808 0.0627133 -0.00749231 -0.00705867 
0.0635459 0.0190431 -0.00737806 0.0431188 -0.00646996 0.073467 0.0434408 0.0203354 0.0200251 
0.0633298 -0.00736854 0.0193382 0.0639435 -0.0075478 0.0459424 0.0643189 -0.00771096 0.0727338 
0.0643778 0.0191399 0.0192177 0.0432555 -0.00650147 0.126621 0.0648146 -0.00785014 0.0998675 
0.0416881 -0.00649783 0.180044 0.0435537 0.0202532 0.180039 0.0645221 -0.00797554 0.126949 
0.0636891 -0.00782453 0.154007 0.0632645 -0.00750756 0.180912 0.0643572 0.0190755 0.181009 
0.0421388 0.0202567 0.206753 0.0625684 -0.00754918 0.207323 0.0634518 0.0190311 0.207601 
0.0432017 0.0734592 -0.00658282 0.0639068 0.0459547 -0.00763677 0.0431922 0.0734031 0.206563 
0.0639065 0.0460123 0.207809 0.0434845 0.126655 -0.00656015 0.0645636 0.0728328 -0.00791924 
0.0646882 0.100041 -0.00803285 0.0646629 0.127101 -0.00808676 0.0433603 0.126509 0.206645 
0.0645813 0.0729242 0.207951 0.0647091 0.0999378 0.207886 0.0647055 0.126954 0.208007 
0.0424214 0.180043 -0.00654824 0.0437529 0.179931 0.0201658 0.0642034 0.154386 -0.00787034 
0.0437469 0.179836 0.180081 0.042275 0.179864 0.206806 0.0642488 0.154094 0.207953 
0.0416111 0.206559 0.0202198 0.063665 0.181485 -0.00737556 0.0626522 0.208036 -0.00688763 
0.0431967 0.206449 0.073592 0.0646313 0.181247 0.0192199 0.0633497 0.207798 0.019487 
0.0638663 0.207795 0.0461754 0.0644509 0.207774 0.0730075 0.0433492 0.206531 0.126641 
0.0650329 0.207876 0.100054 0.0416892 0.206533 0.180042 0.0645019 0.181048 0.181144 
0.0646899 0.208012 0.127059 0.0638727 0.207845 0.154104 0.0633352 0.207617 0.180996 
0.0635506 0.181135 0.207744 0.0626157 0.20771 0.207385 0.0852064 -0.00809363 0.0186161 
0.0849752 0.0184053 -0.0081469 0.107252 -0.00751994 -0.00743214 0.106941 -0.00747615 0.0190178 
0.0854679 -0.00898026 0.0725567 0.0852997 0.018376 0.0184879 0.085409 0.0455099 0.0183728 
0.106388 -0.00762651 0.045832 0.105598 0.0459197 0.0188233 0.0853019 -0.00919304 0.127096 
0.0854147 0.0455031 0.045692 0.0854105 0.0455944 0.154392 0.10605 -0.00777891 0.0728198 
0.105608 -0.00778612 0.100052 0.105908 -0.00815662 0.127182 0.105172 0.0459303 0.0458349 
0.104856 0.0458686 0.154454 0.125071 0.0462863 0.100161 0.125027 0.0463678 0.126912 
0.0847815 -0.0081581 0.181436 0.0848244 0.0183892 0.181734 0.0851922 0.0456404 0.181831 
0.105516 -0.00756264 0.154204 0.105237 0.0458177 0.181453 0.0848556 0.0183834 0.20845 
0.106562 -0.00749503 0.180882 0.107092 -0.0076484 0.20731 0.0852742 0.0725433 -0.00887231 
0.106557 0.0190208 -0.00765183 0.106149 0.019082 0.0189214 0.106227 0.0458038 -0.00781642 
0.105773 0.0727492 -0.00797274 0.0854338 0.0726401 0.20912 0.105744 0.0190049 0.181139 
0.106367 0.0189007 0.207635 0.106242 0.0456695 0.207973 0.105969 0.072669 0.208318 
0.0850458 0.127393 -0.0091516 0.0854501 0.154574 0.0458699 0.105461 0.0998757 -0.00804238 
0.104929 0.154328 0.0460511 0.125164 0.10012 0.0460661 0.125201 0.126738 0.0462094 
0.0855596 0.127347 0.209226 0.0853775 0.154425 0.1543 0.0854147 0.1545 0.181795 
0.105799 0.0997724 0.208472 0.104831 0.154342 0.154034 0.105265 0.154326 0.181272 
0.124911 0.100008 0.153999 0.124969 0.0998106 0.180534 0.124769 0.126593 0.154023 
0.125164 0.126449 0.180585 0.0849755 0.182 -0.00833734 0.0851225 0.182086 0.0184454 
0.0853371 0.181993 0.0457029 0.105521 0.127295 -0.00779092 0.105307 0.154321 -0.00770931 
0.106301 0.181354 -0.0074165 0.105704 0.181273 0.019154 0.105269 0.181396 0.0460713 
0.125459 0.153466 0.0465432 0.0847074 0.181584 0.181844 0.084961 0.181672 0.208631 
0.105875 0.127053 0.208351 0.105857 0.154159 0.208041 0.105639 0.181243 0.181092 
0.10637 0.181152 0.20766 0.125738 0.153252 0.180277 0.0850871 0.20862 0.018735 
0.107302 0.20798 -0.00702409 0.106916 0.207782 0.0193719 0.0855373 0.209144 0.072839 
0.106218 0.207955 0.0459655 0.0854379 0.209147 0.127295 0.106221 0.208163 0.0729728 
0.106093 0.20836 0.100112 0.105936 0.208005 0.127289 0.125601 0.153764 0.100036 
0.125984 0.18024 0.100054 0.084776 0.208248 0.181553 0.105532 0.207597 0.154264 
0.106563 0.207569 0.180888 0.107227 0.207738 0.207282 0.128483 -0.00706233 0.0197241 
0.128033 0.019766 -0.00727905 0.150675 -0.00416265 -0.00591298 0.149536 0.0218276 -0.005512 
0.126749 -0.00701124 0.0734879 0.126887 0.0197603 0.0194582 0.126221 0.0464946 0.0195098 
0.148267 -0.00509857 0.0214893 0.147558 -0.00511229 0.0475954 0.147824 -0.0053668 0.0735968 
0.147546 0.0212225 0.0212679 0.147199 0.0213539 0.0475381 0.147097 0.0210782 0.0738235 
[...]
POINT_DATA 1331
VECTORS displacement float
0 0 0
0 0 0
0 0 0
0 0 0
0 0 0
0 0 0
0 0 0
0 0 0
0 0 0
0 0 0
0 0 0
0 0 0
0 0 0
0 0 0
0 0 0
0 0 0
0 0 0
0 0 0
0 0 0
0 0 0
0 0 0
0 0 0
0 0 0
0 0 0
0 0 0
-0.00944527 -0.00643289 -0.00628269
-0.00761342 -0.00624694 -0.00314407
-0.00635837 -0.006539 6.38771e-05
-0.00723897 -0.00649046 0.00320138
-0.00961695 -0.0064797 0.00640194
-0.00714014 -0.00298481 -0.00658833
-0.00707822 -0.00302933 0.00659005
-0.00665135 0.000212939 -0.00647344
-0.00686074 3.66966e-05 0.00636751
-0.00656672 0.00330252 -0.00653105
-0.00666962 0.00312908 0.00666079
-0.00959505 0.00666363 -0.00615825
-0.0075855 0.00629393 -0.00300623
-0.00625005 0.00650563 0.000121912
-0.0071136 0.00648616 0.00318735
-0.00968064 0.00658327 0.00639728
-0.0150623 -0.00810316 -0.00776938
-0.0147544 -0.00889058 -0.00448799
-0.0144043 -0.00909459 -0.000156343
-0.0158321 -0.00894374 0.00427024
-0.0151716 -0.00817477 0.00798844
-0.0152416 -0.00463073 -0.00851829
-0.0153202 -0.00451278 0.00895287
-0.0146892 -8.58515e-05 -0.00914714
-0.0141971 -2.52278e-05 0.00926667
-0.0153957 0.00477224 -0.0092963
-0.0150975 0.00450719 0.0092491
-0.0150019 0.0085735 -0.00776323
-0.0151006 0.00914252 -0.00423612
-0.0140484 0.00917341 0.000120885
-0.0156355 0.00888991 0.00440672
-0.0150313 0.00827075 0.00812466
-0.0204375 -0.00709695 -0.0066349
-0.0225353 -0.00709954 -0.00323157
-0.0237913 -0.00679624 0.000219853
-0.0228074 -0.00687827 0.00324577
-0.0205824 -0.00713727 0.00650953
-0.0226683 -0.00326025 -0.00751037
-0.0225899 -0.00336633 0.00751552
-0.0238873 0.000143756 -0.00720721
-0.0233894 3.1449e-05 0.00719082
-0.023692 0.00331991 -0.0069933
-0.0230188 0.0031787 0.00683672
-0.0206176 0.00670651 -0.00648461
-0.0220241 0.00676507 -0.00309944
-0.0232068 0.00688115 8.73343e-05
-0.0224068 0.00702052 0.00314034
-0.0205371 0.0067114 0.00643961
-0.03 0 0
-0.03 0 0
-0.03 0 0
-0.03 0 0
-0.03 0 0
-0.03 0 0
-0.03 0 0
-0.03 0 0
-0.03 0 0
-0.03 0 0
-0.03 0 0
-0.03 0 0
-0.03 0 0
-0.03 0 0
-0.03 0 0
-0.03 0 0
-0.03 0 0
-0.03 0 0
-0.03 0 0
-0.03 0 0
-0.03 0 0
-0.03 0 0
-0.03 0 0
-0.03 0 0
-0.03 0 0
0 0 0
0 0 0
-0.00542343 -0.00391877 -0.00550966
-0.00317914 -0.00488996 -0.00320368
0 0 0
0 0 0
0 0 0
0 0 0
-0.00258222 -0.00500446 -0.0021267
0 0 0
0 0 0
-0.00275522 -0.00513749 -0.00118357
-0.00254154 -0.00489728 0.000113878
-0.00264571 -0.00498738 0.00136903
0 0 0
0 0 0
0 0 0
0 0 0
-0.0024657 -0.0049239 0.00218085
0 0 0
-0.00310096 -0.00485719 0.00316444
-0.0055055 -0.00391378 0.00550398
0 0 0
0 0 0
0 0 0
-0.00434676 -0.00284708 -0.00499524
-0.00242725 -0.00348424 -0.00318424
-0.00327431 -0.00183802 -0.00467629
-0.0024407 -0.000206798 -0.00507509
0 0 0
0 0 0
-0.00227084 -0.00339311 -0.0018517
-0.00236532 -0.00184851 -0.00329263
-0.00175285 -0.000515116 -0.00363843
-0.00613589 -0.0046734 -0.00319523
-0.00543389 -0.0049672 -0.00161222
-0.00600784 -0.00309695 -0.00480825
-0.00502414 -0.00149735 -0.00525724
0 0 0
0 0 0
0 0 0
0 0 0
-0.0020491 -0.00356375 -0.000914122
-0.00183766 -0.00348077 0.000103341
-0.00181026 -0.00342443 0.00109184
-0.00520619 -0.0050858 -0.0001157
-0.00476262 -0.00525557 0.00182184
-0.00445683 -0.00152764 -0.00378191
0 0 0
0 0 0
-0.00195461 -0.0033418 0.00200102
-0.00223409 -0.00191863 0.00325903
-0.00187041 -0.000685829 0.00360714
-0.00519872 -0.00500137 0.00337301
-0.00577733 -0.00315572 0.00486705
-0.00529794 -0.00161043 0.00511482
0 0 0
0 0 0
-0.00232022 -0.0034772 0.00318542
-0.00436789 -0.00283446 0.00499002
-0.00317343 -0.00188946 0.00468493
-0.0024893 -0.000352601 0.00510769
0 0 0
0 0 0
-0.0023962 0.000344062 -0.00489398
0 0 0
0 0 0
0 0 0
0 0 0
-0.00176326 0.000303806 -0.00333546
-0.00164492 0.00112977 -0.00339893
-0.00446518 2.5749e-05 -0.00533964
-0.00455493 0.00193713 -0.00521319
0 0 0
0 0 0
-0.00502333 -0.00374155 -7.10782e-05
-0.00451233 -0.0037393 0.00177877
-0.00449319 4.47651e-05 -0.00382917
-0.00513311 1.22679e-05 0.00390949
-0.00432489 0.00187469 -0.00369086
-0.00481399 0.00174934 0.00374082
-0.00498005 0.00377103 5.96218e-05
-0.00461543 0.00366859 0.00189439
-0.0148866 5.16724e-06 3.08037e-05
0 0 0
0 0 0
0 0 0
0 0 0
-0.00191939 0.000173763 0.00351168
-0.00179281 0.00103697 0.00357799
-0.00472547 -0.00360659 0.00341493
-0.00514671 -4.34177e-05 0.0052514
-0.00512754 0.00173249 0.00516918
-0.00458996 0.0036692 0.00349621
0 0 0
-0.00250182 0.000211622 0.00508092
0 0 0
0 0 0
0 0 0
-0.00261288 0.000940467 -0.00491945
-0.00266669 0.00206035 -0.00452912
-0.00421341 0.00279796 -0.00483799
-0.00238858 0.00338813 -0.00311654
0 0 0
0 0 0
-0.00189409 0.0019652 -0.00320283
-0.00223666 0.00333363 -0.00178938
-0.00504733 0.00345781 -0.00490376
-0.00575757 0.00485894 -0.00309414
-0.00526744 0.00501363 -0.00152407
0 0 0
0 0 0
0 0 0
0 0 0
-0.00200017 0.00352116 -0.000878246
-0.00179996 0.00343778 0.000120955
-0.00179562 0.00345234 0.00110716
-0.00461007 0.00344587 -0.00355173
-0.00504049 0.00509824 2.71985e-05
-0.0047164 0.0052778 0.00189999
0 0 0
0 0 0
-0.00197133 0.00188918 0.00343286
-0.00193101 0.00326603 0.00200488
-0.00530144 0.00328209 0.00512751
-0.0049808 0.00510522 0.0034448
0 0 0
0 0 0
-0.00273822 0.000844248 0.00516005
-0.00275736 0.0019642 0.00475306
-0.0022821 0.00334685 0.00320633
-0.00430405 0.00273556 0.00495505
0 0 0
-0.00541867 0.00388822 -0.00539842
-0.00316775 0.00484122 -0.0030901
0 0 0
-0.00256491 0.00495951 -0.00207376
0 0 0
-0.00272129 0.00507356 -0.00111942
-0.00250365 0.00484799 0.000141876
-0.00263008 0.00498234 0.00138913
0 0 0
-0.00241407 0.00481597 0.00220952
-0.00305596 0.00474247 0.00313704
-0.00550676 0.00382845 0.00548275
-0.00832961 -0.0064131 -0.00494225
-0.00781114 -0.00470013 -0.00665808
-0.0122867 -0.00749231 -0.00705867
-0.0114541 -0.00595686 -0.00737806
-0.00688115 -0.00646996 -0.00153301
-0.0065592 -0.00466461 -0.0049749
-0.0116702 -0.00736854 -0.00566177
-0.0110565 -0.0075478 -0.00405759
-0.0106811 -0.00771096 -0.0022662
-0.0106222 -0.00586008 -0.00578227
-0.00674454 -0.00650147 0.00162127
-0.0101854 -0.00785014 -0.000132536
-0.00831186 -0.00649783 0.00504353
-0.00644634 -0.00474681 0.00503857
-0.0104779 -0.00797554 0.00194876
-0.0113109 -0.00782453 0.00400728
-0.0117355 -0.00750756 0.00591219
-0.0106428 -0.00592447 0.00600855
-0.00786122 -0.00474329 0.00675305
-0.0124316 -0.00754918 0.00732313
-0.0115483 -0.00596892 0.00760119
-0.00679835 -0.00154079 -0.00658282
-0.0110932 -0.00404533 -0.00763677
-0.00680781 -0.00159692 0.00656282
-0.0110935 -0.00398768 0.00780941
-0.00651551 0.00165469 -0.00656015
-0.0104364 -0.00216724 -0.00791924
-0.0103118 4.0711e-05 -0.00803285
-0.0103371 0.00210086 -0.00808676
-0.00663972 0.00150888 0.00664467
-0.0104187 -0.00207579 0.00795107
-0.0102909 -6.21906e-05 0.00788617
-0.0102945 0.00195414 0.00800716
-0.00757859 0.00504329 -0.00654824
-0.00624714 0.00493143 -0.00483421
-0.0107967 0.00438597 -0.00787034
-0.00625306 0.00483632 0.00508118
-0.00772502 0.00486421 0.00680598
-0.0107512 0.00409378 0.00795265
-0.00838889 0.00655859 -0.00478023
-0.011335 0.00648482 -0.00737556
-0.0123478 0.00803599 -0.00688763
-0.00680328 0.00644867 -0.00140804
-0.0103687 0.00624702 -0.00578011
-0.0116503 0.00779804 -0.005513
-0.0111337 0.00779526 -0.00382462
-0.0105491 0.00777384 -0.00199251
-0.00665081 0.00653079 0.00164146
-0.00996714 0.00787571 5.4242e-05
-0.00831082 0.00653342 0.00504186
-0.0104981 0.00604823 0.0061437
-0.0103101 0.00801248 0.00205911
-0.0111273 0.00784518 0.00410351
-0.0116648 0.00761665 0.00599638
-0.0114494 0.00613503 0.00774415
-0.0123843 0.00771037 0.00738543
-0.0147936 -0.00809363 -0.00638387
-0.0150248 -0.00659474 -0.0081469
-0.017748 -0.00751994 -0.00743214
-0.0180587 -0.00747615 -0.00598217
-0.0145321 -0.00898026 -0.00244329
-0.0147003 -0.00662401 -0.00651213
-0.014591 -0.00449015 -0.00662724
-0.0186124 -0.00762651 -0.00416799
-0.0194017 -0.00408029 -0.00617673
-0.0146981 -0.00919304 0.00209614
-0.0145853 -0.00449693 -0.00430802
-0.0145895 -0.00440561 0.00439248
-0.0189502 -0.00777891 -0.00218023
-0.0193918 -0.00778612 5.17366e-05
-0.0190916 -0.00815662 0.00218195
-0.0198281 -0.00406966 -0.00416509
-0.0201442 -0.0041314 0.00445375
-0.024929 -0.00371374 0.000161384
-0.0249727 -0.00363224 0.00191249
-0.0152185 -0.0081581 0.00643555
-0.0151756 -0.00661084 0.00673425
-0.0148078 -0.00435965 0.00683055
-0.0194839 -0.00756264 0.00420436
-0.0197629 -0.00418232 0.00645318
-0.0151444 -0.00661657 0.00844974
-0.018438 -0.00749503 0.00588202
-0.0179081 -0.0076484 0.00730992
-0.0147258 -0.00245672 -0.00887231
-0.0184435 -0.00597919 -0.00765183
-0.0188511 -0.00591801 -0.00607861
-0.0187731 -0.00419621 -0.00781642
-0.0192267 -0.00225084 -0.00797274
-0.0145662 -0.00235987 0.00911996
-0.019256 -0.00599507 0.00613932
-0.0186333 -0.00609935 0.00763458
-0.0187581 -0.00433047 0.00797289
-0.0190311 -0.00233097 0.00831809
-0.0149542 0.00239279 -0.0091516
-0.0145499 0.00457368 -0.00413011
-0.0195389 -0.000124328 -0.00804238
-0.0200711 0.00432773 -0.00394889
-0.0248358 0.000120278 -0.00393388
-0.0247993 0.00173843 -0.00379063
-0.0144404 0.00234733 0.00922623
-0.0146225 0.00442479 0.00429956
-0.0145853 0.00450001 0.0067948
-0.0192013 -0.000227608 0.00847177
-0.0201688 0.004342 0.00403443
-0.0197345 0.00432601 0.00627247
-0.0250886 7.58149e-06 0.00399875
-0.0250311 -0.000189366 0.00553412
-0.0252307 0.00159276 0.0040225
-0.024836 0.00144903 0.00558476
-0.0150245 0.00700038 -0.00833734
-0.0148775 0.0070863 -0.00655461
-0.0146629 0.00699349 -0.00429715
-0.0194793 0.00229482 -0.00779092
-0.0196927 0.00432053 -0.00770931
-0.0186993 0.00635432 -0.0074165
-0.0192957 0.00627329 -0.00584598
-0.0197306 0.00639606 -0.00392868
-0.0245415 0.00346602 -0.00345677
-0.0152926 0.00658435 0.00684395
-0.015039 0.00667232 0.00863121
-0.0191255 0.00205292 0.00835068
-0.0191433 0.00415928 0.00804126
-0.0193612 0.00624347 0.00609234
-0.0186295 0.00615152 0.00765976
-0.0242621 0.00325225 0.00527717
-0.0149129 0.00862048 -0.00626499
-0.0176983 0.00798034 -0.00702409
-0.0180843 0.00778177 -0.00562813
-0.0144627 0.00914449 -0.00216104
-0.018782 0.00795476 -0.00403451
-0.0145621 0.00914721 0.00229453
-0.0187794 0.0081627 -0.00202715
-0.0189071 0.00835987 0.00011241
-0.0190636 0.00800489 0.00228936
-0.0243985 0.0037643 3.56697e-05
-0.0240164 0.00523998 5.39929e-05
-0.015224 0.00824788 0.00655286
-0.0194677 0.00759651 0.00426447
-0.0184374 0.00756891 0.00588825
-0.0177734 0.00773833 0.00728167
-0.0215168 -0.00706233 -0.00527594
-0.0219669 -0.00523402 -0.00727905
-0.0243248 -0.00416265 -0.00591298
-0.0254641 -0.00317244 -0.005512
-0.0232506 -0.00701124 -0.00151206
-0.0231129 -0.00523968 -0.00554179
-0.0237788 -0.00350543 -0.00549022
-0.0267325 -0.00509857 -0.00351068
-0.027442 -0.00511229 -0.00240463
-0.0271764 -0.0053668 -0.00140325
-0.0274537 -0.00377748 -0.00373211
-0.0278008 -0.00364607 -0.0024619
-0.0279035 -0.00392183 -0.00117654
-0.0279678 -0.00229399 -0.00242745
-0.0281762 -0.00247814 -0.0011449
-0.0233447 -0.00697437 0.00183969
-0.0243664 -0.00350272 -0.00358397
-0.02733 -0.00520694 6.26556e-05
-0.028049 -0.00398725 2.40462e-05
-0.0283393 -0.00282435 1.65792e-06
-0.0283155 -0.00297654 0.000998188
-0.0217244 -0.00701195 0.00518246
-0.0233119 -0.00525338 0.00552739
-0.0239568 -0.00359717 0.00549963
-0.0271494 -0.00547822 0.00146099
-0.0275293 -0.00505742 0.00238429
-0.0268028 -0.00509066 0.00340732
-0.027957 -0.00401908 0.00118071
-0.0279076 -0.00361537 0.00240469
-0.0275209 -0.00377995 0.00363441
-0.0281284 -0.00227989 0.00234011
-0.0220658 -0.00534585 0.00720708
-0.024421 -0.00419907 0.00576911
-0.0255347 -0.00322132 0.00538342
-0.0232968 -0.00151357 -0.00739152
-0.0268984 -0.00217565 -0.00518908
-0.0277632 -0.00216415 -0.00390339
-0.0279481 -0.00101649 -0.00384714
-0.0230591 -0.00161746 0.00740746
-0.0278428 -0.00221563 0.00372704
-0.0269192 -0.00225458 0.00502032
-0.0280258 -0.00105553 0.00359798
-0.0237437 0.00195088 -0.00707368
-0.0271916 -0.000797261 -0.00554505
-0.0276274 -0.000105214 -0.00540284
-0.0281212 -6.16143e-05 -0.00419982
-0.0282204 0.000144468 -0.00297335
-0.0275955 0.000571889 -0.00555785
-0.0280762 0.000993197 -0.0044234
-0.0282793 0.00105656 -0.00334598
-0.0231035 0.00176187 0.0070266
-0.0272115 -0.000770764 0.00525168
-0.0280251 6.55624e-05 0.00361538
-0.0275541 -0.000190104 0.00514534
-0.0281983 0.000725656 0.00388462
-0.0274986 0.000330537 0.00532417
-0.0223962 0.00500081 -0.00687612
-0.0234207 0.00499205 -0.00524295
-0.0239561 0.00512787 -0.00338194
-0.0269558 0.00214263 -0.0051998
-0.0277127 0.00225184 -0.00401575
-0.0279527 0.00227545 -0.00279295
-0.0234797 0.00500397 0.00526487
-0.0222247 0.00492942 0.00694044
-0.0278055 0.00192019 0.00357445
-0.0268302 0.0018627 0.00495021
-0.0214315 0.00668612 -0.00505096
-0.0256674 0.0031124 -0.00549685
-0.0244875 0.00404432 -0.00595469
-0.0227642 0.00688967 -0.00145523
-0.0274247 0.00369957 -0.00377995
-0.0277598 0.00363949 -0.00256874
-0.0278881 0.00355881 -0.00138
-0.0266394 0.00507721 -0.00364849
-0.0272531 0.00527911 -0.00242954
-0.0271293 0.00519969 -0.00146388
-0.022884 0.00717749 0.00148533
-0.0275239 0.00331758 1.05704e-05
-0.027145 0.00491494 3.92681e-05
-0.0215845 0.00668331 0.00509718
-0.027912 0.00325025 0.00130932
-0.0277753 0.00331606 0.00256834
-0.0275686 0.00351787 0.00364055
-0.0272432 0.00493723 0.00154961
-0.0274509 0.00494335 0.002372
-0.0267937 0.00488532 0.00352076
-0.0256594 0.00288874 0.00536967
-0.0244767 0.00389627 0.00584738
-0.03 0 0
-0.03 0 0
-0.03 0 0
-0.03 0 0
-0.03 0 0
-0.03 0 0
-0.03 0 0
-0.03 0 0
-0.03 0 0
-0.03 0 0
-0.03 0 0
-0.03 0 0
-0.03 0 0
-0.03 0 0
-0.03 0 0
-0.03 0 0
-0.03 0 0
-0.03 0 0
-0.03 0 0
-0.03 0 0
-0.03 0 0
-0.03 0 0
-0.03 0 0
-0.03 0 0
-0.03 0 0
-0.03 0 0
-0.03 0 0
-0.03 0 0
-0.03 0 0
-0.03 0 0
-0.03 0 0
-0.03 0 0
-0.03 0 0
-0.03 0 0
-0.03 0 0
-0.03 0 0
-0.03 0 0
-0.03 0 0
-0.03 0 0
-0.03 0 0
-0.03 0 0
-0.03 0 0
-0.03 0 0
-0.03 0 0
-0.03 0 0
-0.03 0 0
-0.03 0 0
-0.03 0 0
-0.03 0 0
-0.03 0 0
-0.03 0 0
-0.03 0 0
-0.03 0 0
-0.03 0 0
-0.03 0 0
-0.03 0 0
-0.0243945 0.00564252 -0.00540536
-0.0263932 0.00236801 -0.00465941
-0.0129048 -0.00792353 0.00551525
-0.0280424 0.00433463 -0.00213843
-0.03 0 0
-0.0283061 0.00308806 -0.00313798
0 0 0
-0.03 0 0
0 0 0
-0.00895044 0.00737768 -0.00115544
-0.03 0 0
-0.0275126 -0.00019483 0.00317208
-0.01081 0.00748164 -0.00573984
-0.0127792 0.00736012 -0.00748424
-0.03 0 0
-0.025746 -0.00160045 0.00609168
-0.0288471 -0.000910996 0.00305503
-0.00545869 -0.00540963 -0.00496794
-0.00347652 -0.00226909 -0.00428779
-0.011666 -0.00159828 -0.00837637
-0.0198758 -0.00516116 -0.0075477
-0.0128488 -0.00679134 -0.00748309
-0.0107871 -0.00707091 -0.00591707
-0.00382786 0.00571008 0.000966037
-0.00114801 -0.00219425 -0.00200087
-0.00994393 -0.0049823 -0.00718569
-0.00995271 -0.0060848 -0.00603383
0 0 0
-0.0288792 -0.000513155 0.00319241
-0.03 0 0
-0.0283243 -0.000635129 0.00431962
-0.00479381 0.00322871 -0.00553761
0 0 0
-0.00157732 -0.00295195 -0.00275807
-0.00181031 -0.00412254 -0.00180277
-0.00130613 -0.00308189 -0.00198454
-0.0126721 0.00814642 -0.00522269
-0.012334 0.00713982 -0.00655204
-0.0022232 -0.00149887 -0.00291462
-0.03 0 0
-0.00300393 -0.00345097 -0.000733634
0 0 0
-0.00158506 0.00072554 -0.00410125
0 0 0
-0.0204311 0.00531224 -0.00727211
-0.0246991 0.00338488 0.00249119
-0.0120531 -0.00836741 0.0026577
-0.0249273 0.00319508 0.00603231
-0.0192381 0.00728727 0.00611395
-0.0172155 0.00698456 0.00776959
-0.0119165 0.00713305 -0.00537224
-0.00411575 -0.00132597 -0.00579971
-0.00150449 -0.00132971 -0.002753
-0.00491479 0.00313607 0.00569463
0 0 0
-0.00174241 -0.00404542 0.00179003
0 0 0
-0.00123479 -0.00302667 0.00195834
-0.03 0 0
-0.00443822 0.00424974 -0.00467388
-0.00550753 0.00541356 -0.00482881
-0.00339089 0.00220226 -0.00418128
-0.00154783 0.00286627 -0.0026773
-0.00177158 0.00402544 -0.00173567
-0.00127053 0.00295638 -0.00191922
0 0 0
0 0 0
-0.00112481 0.0014414 -0.00266528
-0.00110369 0.00206046 -0.00196476
-0.00361611 0.00342538 -0.00435911
0 0 0
0 0 0
-0.00111707 -0.000557381 -0.00305806
0 0 0
-0.00105781 -7.92143e-05 -0.00309769
-0.00104856 0.000258192 -0.00296477
-0.00156572 -0.00018531 -0.0041521
0 0 0
-0.00169672 0.000677443 0.00434874
-0.0125958 -0.00775014 -0.00540279
-0.0119624 -0.006781 -0.00544722
-0.0124018 -0.00669069 -0.00653938
-0.00344254 0.0021543 0.00420409
-0.00441268 0.00420019 0.00480854
-0.00550178 0.00533884 0.00494872
-0.0205815 0.00269624 0.00783945
0 0 0
-0.00119244 0.00295065 -0.00138067
0 0 0
-0.00123656 0.00330484 -0.000860502
-0.00176032 0.00430557 -0.0011926
-0.0290514 0.000336932 0.00252823
0 0 0
-0.00179071 -0.00436525 -0.00124436
-0.00753444 0.00537741 0.0013106
-0.00388573 0.00154713 0.00590012
-0.00111488 0.000866098 0.00306825
-0.00114062 0.000545471 0.00323172
-0.00389503 -0.00582789 -0.000734385
-0.00116256 -0.00319158 -0.000417755
-0.00407326 -0.00144226 0.00583489
0 0 0
-0.00108228 0.00300463 0.000633524
-0.00165012 0.00408878 0.00137579
0 0 0
-0.00112184 0.00309097 0.00103608
-0.000937423 0.00226563 0.00089729
-0.00109238 0.00278996 0.00148553
-0.00551167 -0.00552178 -0.00102213
-0.0090849 -0.00735967 -0.0013603
-0.00310809 -0.00467137 -0.000762237
-0.00382411 0.00168508 -0.0056577
-0.00104822 0.000913291 -0.00284771
-0.00106041 0.000596836 -0.0030132
-0.00362948 0.00334876 0.00451289
-0.00116707 0.00139935 0.00284004
-0.00306561 0.00330672 0.00355971
-0.0010534 0.00202955 0.00202595
0 0 0
-0.00149283 0.0027892 0.00267306
-0.00168694 0.00390727 0.00178131
-0.00119403 0.00287532 0.00195325
-0.00108679 -0.0021852 0.00199134
-0.00142259 -0.00138779 0.00272532
-0.00152491 -0.00290408 0.00269489
-0.003489 -0.00224767 0.00423917
-0.00548873 -0.00541092 0.00497217
-0.0287911 0.00287175 0.00174569
-0.03 0 0
-0.00219059 0.00310648 0.00105193
0 0 0
-0.00213409 0.00223228 0.00207459
-0.0261666 0.00340419 0.00491274
-0.028792 0.00217194 0.00248163
-0.00513475 -0.00308495 -0.00569177
-0.0038893 -0.00330813 -0.00451019
-0.00723363 -0.00519532 -0.00564685
-0.00453147 -0.00423591 -0.00482146
-0.0193307 -0.0072991 0.00616352
-0.0172682 -0.00686401 0.00769601
-0.0247115 0.000102468 -0.0049276
-0.00114344 -0.000689537 0.00310106
-0.00098349 -0.000260193 0.00235121
0 0 0
-0.0283049 -0.000618344 -0.00452638
-0.03 0 0
-0.00522355 -0.000843285 -0.0058427
-0.00218372 -0.00064221 -0.00391774
-0.000890486 -0.000148259 -0.00231053
-0.00608256 0.00532034 -0.00307202
-0.0119175 0.00828678 -0.00278645
-0.0092224 -0.00259776 0.00748035
-0.00320354 -0.00144473 0.00470941
0 0 0
-0.00106816 -0.00238154 -0.000680573
-0.00121305 -0.00301266 -0.00142142
-0.00125153 -0.00334499 -0.000888404
-0.03 0 0
-0.03 0 0
-0.0281532 0.0043582 -0.00150809
-0.00385068 -0.0057195 0.000952791
-0.00110334 -0.00294763 0.000110311
-0.010864 -0.00717053 0.00614856
-0.0125219 -0.00674561 0.00683965
-0.0129623 -0.00684022 0.00777088
-0.00112293 -0.00287533 0.00147252
0 0 0
-0.00999181 -0.00616515 0.00624803
-0.0100142 -0.00498157 0.00736809
-0.00573207 -0.00208782 0.0055691
-0.00546014 -0.000979829 0.00565898
-0.0116214 -0.00148305 0.00840125
-0.00600347 -0.00314572 0.00539527
-0.00923822 -0.00495999 0.00629892
-0.00323831 -0.00333765 0.0035075
-0.0268297 0.00357197 -0.00206493
-0.0281799 0.00411283 0.00202939
-0.03 0 0
-0.0286652 0.00308987 0.00229194
-0.0202646 -0.00512685 -0.00650591
-0.0204377 -0.00271016 -0.00775329
0 0 0
-0.00163891 -0.000338889 0.00428468
-0.00112508 0.000172152 0.00316705
-0.00111036 -0.000193508 0.00319849
-0.0128783 0.00699873 0.00792643
-0.0108324 0.00730432 0.00621036
0 0 0
-0.00109259 -0.00299656 0.000623876
-0.00166545 -0.00410263 0.00135329
-0.00112999 -0.00307546 0.00101971
-0.01708 -0.00675338 -0.00770847
-0.0190541 -0.0072734 -0.006313
-0.0197453 -0.0063088 -0.00638445
-0.0242382 0.00454101 -0.00228524
-0.0244045 0.00344681 -0.00234357
-0.0238459 0.00575867 6.1907e-05
-0.0174874 -0.00807847 -0.00302177
-0.00531997 -0.00554921 0.00113124
-0.0053928 -0.00554286 4.69247e-05
-0.00297338 -0.00458478 0.000959922
-0.0089957 -0.00746545 0.00117962
-0.00828172 -0.00252318 0.00650659
-0.0085032 -0.00503812 0.00513255
-0.0122014 -0.00684351 0.0056182
-0.00586033 -0.00425977 0.00437083
-0.00758587 -0.00253777 0.00412476
-0.00807039 -0.0037334 0.00529686