# vtk DataFile Version 3.0
vtk output at time 0.2
ASCII
DATASET UNSTRUCTURED_GRID
POINTS 1331 float
0 0 0 0 0 0.05 0 0 0.1 
0 0 0.15 0 0 0.2 0 0.05 0 
0 0.05 0.05 0 0.05 0.1 0 0.05 0.15 
0 0.05 0.2 0 0.1 0 0 0.1 0.05 
0 0.1 0.1 0 0.1 0.15 0 0.1 0.2 
0 0.15 0 0 0.15 0.05 0 0.15 0.1 
0 0.15 0.15 0 0.15 0.2 0 0.2 0 
0 0.2 0.05 0 0.2 0.1 0 0.2 0.15 
0 0.2 0.2 0.0469963 -0.0024117 -0.00228518 0.0475306 -0.00234038 0.0488665 
0.0478875 -0.00244257 0.100015 0.0476372 -0.00243209 0.151169 0.0469453 -0.00240402 0.202352 
0.047675 0.0488909 -0.00244665 0.0476932 0.0489049 0.202447 0.0477853 0.100053 -0.0024532 
0.0477391 0.100008 0.202387 0.0478253 0.151202 -0.00244378 0.0478129 0.151131 0.202465 
0.0469398 0.202489 -0.00226568 0.0475293 0.202355 0.0489038 0.0479197 0.202431 0.100031 
0.047678 0.202431 0.151155 0.0469235 0.202446 0.202353 0.0949746 -0.00294838 -0.00283885 
0.0950632 -0.00324131 0.0483895 0.0951748 -0.00335853 0.0999504 0.0946914 -0.00325856 0.15152 
0.0949441 -0.00296755 0.202898 0.0949095 0.0483383 -0.00312271 0.0948911 0.0483842 0.203263 
0.0950698 0.0999652 -0.00339717 0.0952516 0.0999957 0.203409 0.0948333 0.151695 -0.00343173 
0.094953 0.151609 0.203374 0.0949887 0.2031 -0.00283361 0.0949395 0.203321 0.0484684 
0.0952811 0.203367 0.100039 0.0947623 0.203242 0.151553 0.0949882 0.203002 0.202929 
0.143024 -0.00260357 -0.00239945 0.142371 -0.00263432 0.0488607 0.14201 -0.00251947 0.100077 
0.142295 -0.00255849 0.151142 0.142976 -0.00261924 0.202358 0.142358 0.0488302 -0.00274438 
0.14239 0.0487966 0.202767 0.141971 0.100046 -0.00266882 0.14216 0.10002 0.202683 
0.142005 0.151193 -0.00255062 0.142269 0.151168 0.20251 0.142973 0.202491 -0.00233896 
0.142538 0.202543 0.048907 0.142213 0.202573 0.100024 0.142423 0.202617 0.151099 
0.142987 0.2025 0.202316 0.19 0 0 0.19 0 0.05 
0.19 0 0.1 0.19 0 0.15 0.19 0 0.2 
0.19 0.05 0 0.19 0.05 0.05 0.19 0.05 0.1 
0.19 0.05 0.15 0.19 0.05 0.2 0.19 0.1 0 
0.19 0.1 0.05 0.19 0.1 0.1 0.19 0.1 0.15 
0.19 0.1 0.2 0.19 0.15 0 0.19 0.15 0.05 
0.19 0.15 0.1 0.19 0.15 0.15 0.19 0.15 0.2 
0.19 0.2 0 0.19 0.2 0.05 0.19 0.2 0.1 
0.19 0.2 0.15 0.19 0.2 0.2 0 0 0.025 
0 0.025 0 0.0233686 -0.00145963 -0.00207499 0.0240454 -0.00180812 0.023843 
0 0 0.075 0 0.025 0.025 0 0.025 0.05 
0 0.025 0.075 0.0242279 -0.00188685 0.0492397 0 0 0.125 
0 0.025 0.1 0.0241543 -0.00194455 0.074585 0.0242169 -0.00186381 0.100038 
0.0241774 -0.00189343 0.125482 0 0 0.175 0 0.025 0.125 
0 0.025 0.15 0 0.025 0.175 0.0242566 -0.00185496 0.150787 
0 0.025 0.2 0.0240628 -0.00178647 0.176152 0.0233445 -0.00144463 0.202084 
0 0.05 0.025 0 0.075 0 0 0.075 0.025 
0.0236722 0.023966 -0.00186196 0.0242617 0.0237406 0.0238336 0.0239995 0.0493172 -0.00177039 
0.0242397 0.0748916 -0.00192625 0 0.05 0.075 0 0.075 0.05 
0.0242765 0.0237422 0.04933 0.0242501 0.0493127 0.0237786 0.0244413 0.0747939 0.0236356 
0.0479693 0.0232746 0.0488376 0.0481942 0.0231534 0.0744151 0.0480164 0.0488583 0.0232254 
0.0483007 0.0744319 0.0230512 0 0.05 0.125 0 0.075 0.075 
0 0.075 0.1 0 0.075 0.125 0.0243521 0.0236785 0.07468 
0.0244041 0.0236954 0.100036 0.0244301 0.0237143 0.125395 0.0482578 0.0231049 0.0999583 
0.0483893 0.0230535 0.125652 0.0484566 0.0744215 0.0486255 0 0.05 0.175 
0 0.075 0.15 0.0243802 0.023762 0.150729 0.0242881 0.0493046 0.176209 
0.0244042 0.0747473 0.176343 0.0482634 0.0231627 0.15123 0.0480809 0.0488649 0.176793 
0.0482312 0.0744209 0.17689 0 0.075 0.175 0 0.075 0.2 
0.0242908 0.0237512 0.17617 0.0236632 0.0239848 0.201866 0.0240286 0.0493179 0.201774 
0.0242339 0.0748578 0.20193 0 0.1 0.025 0 0.125 0 
0.0242508 0.100106 -0.00186336 0 0.1 0.075 0 0.125 0.025 
0 0.125 0.05 0 0.125 0.075 0.0244275 0.100092 0.0237381 
0.0244682 0.125408 0.0237189 0.0484905 0.0999981 0.0229975 0.0484468 0.125688 0.0230491 
0 0.1 0.125 0 0.125 0.1 0.048274 0.0486302 0.0999715 
0.0484315 0.0486417 0.125631 0.0484367 0.100014 0.0485827 0.0482407 0.100006 0.151424 
0.0484822 0.125664 0.0486439 0.0483439 0.125627 0.151353 0.0482832 0.151373 0.100015 
0.0484016 0.151331 0.125669 0.0950099 0.100001 0.100003 0 0.1 0.175 
0 0.125 0.125 0 0.125 0.15 0 0.125 0.175 
0.0243804 0.100055 0.176308 0.0244241 0.125372 0.176325 0.0483821 0.0487101 0.151249 
0.048281 0.0999884 0.176949 0.0482817 0.125616 0.176909 0.0484185 0.151311 0.151276 
0 0.125 0.2 0.0242335 0.10007 0.201923 0 0.15 0.025 
0 0.175 0 0 0.175 0.025 0.0241773 0.125341 -0.00186271 
0.0241628 0.150748 -0.001711 0.0236953 0.176023 -0.00181127 0.0242693 0.176231 0.0238564 
0 0.15 0.075 0 0.175 0.05 0.0243907 0.150718 0.0238049 
0.0242812 0.176235 0.0493503 0.0483079 0.151261 0.0231795 0.0480695 0.176784 0.0488713 
0.0482374 0.176856 0.0744441 0 0.15 0.125 0 0.175 0.075 
0 0.175 0.1 0 0.175 0.125 0.0243638 0.176309 0.0746911 
0.0244156 0.176291 0.100041 0.024435 0.176295 0.125397 0.0484155 0.151256 0.0487088 
0.048305 0.176895 0.100005 0.0484038 0.176951 0.125673 0 0.15 0.175 
0 0.175 0.15 0.0243705 0.150687 0.176264 0.0243875 0.176213 0.150725 
0.0482344 0.151185 0.176881 0.0483358 0.176875 0.151245 0 0.175 0.175 
0 0.175 0.2 0.0241565 0.125311 0.201936 0.0241488 0.150709 0.201778 
0.0243018 0.176214 0.176169 0.0236763 0.175993 0.201848 0 0.2 0.025 
0.0233559 0.201456 -0.00204316 0.0240388 0.201797 0.0238795 0 0.2 0.075 
0.0242275 0.201871 0.0492552 0 0.2 0.125 0.0241599 0.201924 0.0746051 
0.0242268 0.201848 0.100046 0.024183 0.201892 0.125486 0 0.2 0.175 
0.0242703 0.201818 0.15079 0.02407 0.201755 0.176134 0.0233382 0.201427 0.20207 
0.0473544 -0.00240842 0.0232134 0.0474998 0.0232533 -0.00245803 0.0709875 -0.00276336 -0.00260122 
0.0712409 0.022817 -0.00272358 0.0477557 -0.00243269 0.0744333 0.0478824 0.0232764 0.0231808 
0.0711788 -0.00272059 0.0229327 0.0713418 -0.00279285 0.048532 0.071456 -0.00286886 0.0741776 
0.0714867 0.0228583 0.0228851 0.0477829 -0.00244987 0.125591 0.071602 -0.00292834 0.0999474 
0.0473535 -0.00242554 0.176843 0.0479088 0.0232655 0.176848 0.0714997 -0.00296558 0.125702 
0.0712342 -0.00289788 0.151455 0.0711491 -0.00275936 0.177166 0.0714712 0.0228509 0.177197 
0.0474824 0.0232647 0.2025 0.0709434 -0.0027632 0.202703 0.0712116 0.022834 0.202803 
0.047778 0.0744213 -0.00248 0.0713287 0.048519 -0.00282739 0.0477847 0.0744267 0.202462 
0.0713307 0.0485641 0.202885 0.0478418 0.125594 -0.00248129 0.0715268 0.0741974 -0.00294899 
0.0715403 0.100001 -0.0030154 0.0715298 0.125741 -0.00303228 0.0478258 0.125549 0.202485 
0.0715416 0.0742527 0.202947 0.0715753 0.0999799 0.202935 0.0715697 0.125702 0.202968 
0.0475519 0.176857 -0.00243092 0.0479621 0.176812 0.0232203 0.0713911 0.151591 -0.00293605 
0.0479626 0.176772 0.176858 0.0475186 0.176782 0.202513 0.0714312 0.151479 0.202934 
0.0473206 0.202464 0.0232525 0.0712615 0.177365 -0.00273638 0.0709614 0.202953 -0.00255452 
0.0477712 0.202423 0.0744716 0.0715426 0.177272 0.0228782 0.0711696 0.20287 0.0229752 
0.0713027 0.202877 0.048605 0.0714877 0.202883 0.0742706 0.0478126 0.20246 0.125592 
0.0716665 0.202929 0.100007 0.0473475 0.202447 0.17684 0.0715057 0.177199 0.177237 
0.0715536 0.202974 0.125732 0.071297 0.202906 0.151478 0.0711645 0.202805 0.177185 
0.0712387 0.177234 0.202849 0.0709573 0.20283 0.202717 0.095057 -0.00295183 0.0226969 
0.0949841 0.0226163 -0.00297977 0.118996 -0.00276446 -0.00272659 0.118888 -0.00275579 0.0228218 
0.0951349 -0.00329176 0.0741256 0.095084 0.0226079 0.0226406 0.095118 0.0483848 0.0225874 
0.118732 -0.00282221 0.0485002 0.118502 0.0485222 0.0227425 0.0950663 -0.00337015 0.125746 
0.0951156 0.0483752 0.0484339 0.0951142 0.0484092 0.151584 0.118631 -0.00288838 0.0742209 
0.1185 -0.00289498 0.100023 0.11859 -0.00303606 0.125782 0.118379 0.0485213 0.0484917 
0.11829 0.0485046 0.15161 0.141698 0.0486445 0.100054 0.141684 0.0486815 0.125693 
0.0949199 -0.00296196 0.177312 0.0949332 0.0226173 0.177431 0.0950476 0.0484372 0.177472 
0.118449 -0.00278247 0.151507 0.118395 0.0484923 0.177352 0.0949511 0.0226147 0.203075 
0.118776 -0.00274886 0.177135 0.118945 -0.00280207 0.20268 0.0950716 0.0741208 -0.00327226 
0.118776 0.0228184 -0.00281543 0.118652 0.0228418 0.0227815 0.118684 0.048477 -0.00288244 
0.118551 0.0741869 -0.00295208 0.0951328 0.0741606 0.203339 0.118536 0.0228229 0.177234 
0.11872 0.0227843 0.202808 0.118696 0.048436 0.202938 0.118626 0.0741652 0.203073 
0.0949841 0.125853 -0.00338232 0.0951123 0.151643 0.0484986 0.118452 0.0999516 -0.00298517 
0.1183 0.151566 0.0485744 0.141727 0.100044 0.0485666 0.141728 0.125635 0.0486243 
0.0951687 0.125841 0.203379 0.095107 0.151597 0.151545 0.0951114 0.151617 0.177458 
0.118584 0.0999176 0.203137 0.11829 0.151576 0.151441 0.118415 0.151566 0.177263 
0.14167 0.100002 0.151447 0.141664 0.0999381 0.177035 0.141634 0.125592 0.151428 
0.141726 0.125533 0.177041 0.0949709 0.177513 -0.00305026 0.0950089 0.177548 0.0226168 
0.0950718 0.177516 0.0484432 0.118465 0.125824 -0.00287845 0.118375 0.151549 -0.00284361 
0.118691 0.177305 -0.00273319 0.118506 0.177278 0.0228639 0.118389 0.177332 0.0485834 
0.14181 0.151263 0.0487652 0.0948825 0.177379 0.177462 0.0949815 0.177404 0.203127 
0.118609 0.125753 0.203067 0.118584 0.151512 0.202943 0.118495 0.177272 0.177192 
0.118718 0.177236 0.20279 0.141914 0.151184 0.176906 0.0950058 0.203128 0.0227362 
0.119001 0.202913 -0.00259125 0.118868 0.202858 0.0229447 0.0951444 0.203335 0.0742187 
0.118669 0.202924 0.0485396 0.0951119 0.203347 0.125803 0.118685 0.203009 0.0742655 
0.118662 0.203095 0.100033 0.118606 0.202957 0.125807 0.141884 0.151368 0.100008 
0.141971 0.176938 0.100013 0.0949112 0.202999 0.177338 0.118456 0.202793 0.151517 
0.118768 0.202785 0.177121 0.118981 0.202836 0.202655 0.142664 -0.00261006 0.0231113 
0.142546 0.0231068 -0.00265477 0.166679 -0.00152601 -0.00218939 0.166356 0.0238856 -0.00200853 
0.142166 -0.00259994 0.0744654 0.142191 0.0230984 0.0230009 0.142011 0.0487396 0.0230072 
0.165953 -0.00185775 0.0237768 0.165742 -0.00188591 0.0491766 0.165844 -0.00199228 0.0745224 
0.165743 0.0236574 0.0236872 0.165682 0.0236914 0.0491483 0.165658 0.0235876 0.0746055 
[...]
POINT_DATA 1331
VECTORS displacement float
0 0 0
0 0 0
0 0 0
0 0 0
0 0 0
0 0 0
0 0 0
0 0 0
0 0 0
0 0 0
0 0 0
0 0 0
0 0 0
0 0 0
0 0 0
0 0 0
0 0 0
0 0 0
0 0 0
0 0 0
0 0 0
0 0 0
0 0 0
0 0 0
0 0 0
-0.00300367 -0.0024117 -0.00228518
-0.00246945 -0.00234038 -0.00113348
-0.00211253 -0.00244257 1.47809e-05
-0.00236283 -0.00243209 0.00116904
-0.0030547 -0.00240402 0.00235228
-0.00232505 -0.00110907 -0.00244665
-0.00230685 -0.00109507 0.00244731
-0.00221468 5.27279e-05 -0.0024532
-0.00226093 7.53012e-06 0.0023873
-0.00217467 0.00120188 -0.00244378
-0.00218715 0.00113142 0.00246464
-0.00306025 0.00248937 -0.00226568
-0.00247074 0.00235484 -0.00109619
-0.00208034 0.00243051 3.05684e-05
-0.00232199 0.00243053 0.00115507
-0.00307653 0.00244644 0.00235322
-0.0050254 -0.00294838 -0.00283885
-0.00493685 -0.00324131 -0.00161048
-0.00482523 -0.00335853 -4.9646e-05
-0.00530863 -0.00325856 0.00152011
-0.00505591 -0.00296755 0.0028978
-0.00509054 -0.00166173 -0.00312271
-0.00510892 -0.00161578 0.00326314
-0.00493019 -3.47939e-05 -0.00339717
-0.00474838 -4.34033e-06 0.0034094
-0.00516669 0.00169451 -0.00343173
-0.00504698 0.00160868 0.00337397
-0.00501129 0.00309989 -0.00283361
-0.00506052 0.00332103 -0.00153162
-0.00471892 0.00336739 3.913e-05
-0.00523769 0.00324219 0.00155335
-0.00501181 0.00300239 0.00292918
-0.00697639 -0.00260357 -0.00239945
-0.00762861 -0.00263432 -0.00113931
-0.00798979 -0.00251947 7.69771e-05
-0.00770452 -0.00255849 0.00114201
-0.00702399 -0.00261924 0.00235829
-0.00764198 -0.00116977 -0.00274438
-0.0076103 -0.0012034 0.00276657
-0.00802901 4.63597e-05 -0.00266882
-0.00784027 2.00206e-05 0.00268346
-0.0079947 0.00119316 -0.00255062
-0.00773075 0.00116807 0.00251012
-0.00702651 0.00249146 -0.00233896
-0.00746207 0.00254276 -0.00109295
-0.00778745 0.00257306 2.3931e-05
-0.00757654 0.00261737 0.00109948
-0.00701251 0.00250044 0.00231592
-0.01 0 0
-0.01 0 0
-0.01 0 0
-0.01 0 0
-0.01 0 0
-0.01 0 0
-0.01 0 0
-0.01 0 0
-0.01 0 0
-0.01 0 0
-0.01 0 0
-0.01 0 0
-0.01 0 0
-0.01 0 0
-0.01 0 0
-0.01 0 0
-0.01 0 0
-0.01 0 0
-0.01 0 0
-0.01 0 0
-0.01 0 0
-0.01 0 0
-0.01 0 0
-0.01 0 0
-0.01 0 0
0 0 0
0 0 0
-0.00163143 -0.00145963 -0.00207499
-0.000954584 -0.00180812 -0.00115704
0 0 0
0 0 0
0 0 0
0 0 0
-0.000772117 -0.00188685 -0.000760298
0 0 0
0 0 0
-0.000845653 -0.00194455 -0.000415023
-0.000783107 -0.00186381 3.78798e-05
-0.000822562 -0.00189343 0.000481839
0 0 0
0 0 0
0 0 0
0 0 0
-0.000743373 -0.00185496 0.000786695
0 0 0
-0.0009372 -0.00178647 0.00115248
-0.00165551 -0.00144463 0.0020837
0 0 0
0 0 0
0 0 0
-0.00132784 -0.00103396 -0.00186196
-0.000738259 -0.00125942 -0.00116645
-0.00100052 -0.000682832 -0.00177039
-0.000760286 -0.000108413 -0.00192625
0 0 0
0 0 0
-0.00072355 -0.00125776 -0.000669964
-0.000749942 -0.000687322 -0.00122142
-0.000558734 -0.000206097 -0.00136441
-0.00203069 -0.00172537 -0.0011624
-0.00180579 -0.00184661 -0.000584906
-0.0019836 -0.00114169 -0.00177461
-0.00169927 -0.000568153 -0.00194881
0 0 0
0 0 0
0 0 0
0 0 0
-0.000647945 -0.00132154 -0.000320014
-0.000595905 -0.00130456 3.6105e-05
-0.000569901 -0.0012857 0.000395498
-0.0017422 -0.00189513 -4.16868e-05
-0.00161068 -0.00194652 0.000651893
-0.00154342 -0.000578459 -0.00137451
0 0 0
0 0 0
-0.000619756 -0.00123795 0.000729003
-0.000711905 -0.000695403 0.0012088
-0.000595771 -0.000252708 0.00134294
-0.00173661 -0.00183734 0.00123007
-0.00191911 -0.00113512 0.00179284
-0.00176882 -0.000579144 0.00189022
0 0 0
0 0 0
-0.000709155 -0.00124883 0.00117008
-0.00133684 -0.00101521 0.00186644
-0.000971434 -0.000682072 0.00177352
-0.000766056 -0.000142169 0.00193012
0 0 0
0 0 0
-0.000749234 0.000105862 -0.00186336
0 0 0
0 0 0
0 0 0
0 0 0
-0.000572543 9.21206e-05 -0.00126194
-0.000531771 0.00040785 -0.00128105
-0.00150954 -1.90326e-06 -0.00200248
-0.00155324 0.000687667 -0.00195093
0 0 0
0 0 0
-0.001726 -0.00136976 -2.84799e-05
-0.00156846 -0.00135835 0.000631462
-0.00156325 1.37337e-05 -0.00141731
-0.00175928 6.429e-06 0.0014238
-0.00151776 0.000663854 -0.00135614
-0.00165612 0.000627267 0.00135341
-0.00171676 0.00137306 1.50313e-05
-0.00159841 0.00133094 0.000668726
-0.00499006 9.99335e-07 3.18292e-06
0 0 0
0 0 0
0 0 0
0 0 0
-0.00061962 5.4962e-05 0.00130763
-0.000575855 0.000371521 0.00132453
-0.00161793 -0.00128992 0.00124942
-0.00171902 -1.16096e-05 0.00194934
-0.00171827 0.000615952 0.00190887
-0.00158149 0.00131078 0.00127551
0 0 0
-0.000766481 6.95245e-05 0.00192255
0 0 0
0 0 0
0 0 0
-0.000822656 0.000341096 -0.00186271
-0.000837203 0.000747946 -0.001711
-0.00130467 0.00102306 -0.00181127
-0.000730679 0.0012314 -0.00114357
0 0 0
0 0 0
-0.00060931 0.000718453 -0.00119512
-0.000718755 0.00123497 -0.000649695
-0.00169209 0.00126071 -0.00182045
-0.00193052 0.00178368 -0.00112874
-0.00176259 0.00185591 -0.000555902
0 0 0
0 0 0
0 0 0
0 0 0
-0.000636197 0.00130908 -0.000308864
-0.000584434 0.00129134 4.1146e-05
-0.000565038 0.00129518 0.000397152
-0.00158448 0.00125644 -0.00129118
-0.00169502 0.0018948 5.06563e-06
-0.00159618 0.00195147 0.000672795
0 0 0
0 0 0
-0.000629472 0.000687404 0.00126389
-0.000612543 0.00121322 0.00072489
-0.00176561 0.00118484 0.00188127
-0.00166421 0.00187542 0.00124537
0 0 0
0 0 0
-0.000843462 0.000310604 0.0019359
-0.000851188 0.00070945 0.00177781
-0.000698227 0.00121436 0.00116854
-0.00132374 0.000993048 0.00184781
0 0 0
-0.00164415 0.00145585 -0.00204316
-0.000961245 0.0017969 -0.0011205
0 0 0
-0.000772504 0.00187089 -0.000744784
0 0 0
-0.000840112 0.00192414 -0.000394869
-0.000773196 0.00184813 4.6259e-05
-0.000816953 0.00189222 0.000485973
0 0 0
-0.000729718 0.0018181 0.000789871
-0.000930026 0.00175472 0.00113401
-0.00166181 0.00142703 0.00207023
-0.0026456 -0.00240842 -0.00178662
-0.00250024 -0.00174674 -0.00245803
-0.00401252 -0.00276336 -0.00260122
-0.00375913 -0.00218297 -0.00272358
-0.00224428 -0.00243269 -0.000566735
-0.00211762 -0.00172359 -0.00181923
-0.00382121 -0.00272059 -0.0020673
-0.00365823 -0.00279285 -0.001468
-0.00354397 -0.00286886 -0.000822389
-0.0035133 -0.0021417 -0.00211487
-0.00221711 -0.00244987 0.000590743
-0.003398 -0.00292834 -5.26088e-05
-0.00264646 -0.00242554 0.00184324
-0.00209119 -0.00173449 0.00184845
-0.00350035 -0.00296558 0.000701921
-0.00376578 -0.00289788 0.0014551
-0.00385091 -0.00275936 0.00216612
-0.0035288 -0.00214915 0.00219652
-0.00251761 -0.00173528 0.0024995
-0.00405662 -0.0027632 0.00270341
-0.00378844 -0.00216603 0.00280335
-0.00222202 -0.00057867 -0.00248
-0.00367134 -0.00148104 -0.00282739
-0.00221526 -0.000573319 0.0024621
-0.00366926 -0.00143588 0.00288518
-0.00215824 0.000594311 -0.00248129
-0.00347319 -0.000802551 -0.00294899
-0.00345974 1.27562e-06 -0.0030154
-0.00347021 0.000741018 -0.00303228
-0.00217419 0.000548899 0.0024848
-0.00345836 -0.000747291 0.00294663
-0.00342466 -2.01095e-05 0.0029348
-0.00343027 0.000701944 0.00296764
-0.00244805 0.00185749 -0.00243092
-0.00203791 0.00181184 -0.00177966
-0.00360888 0.0015905 -0.00293605
-0.00203738 0.00177202 0.00185775
-0.00248143 0.00178217 0.00251309
-0.00356875 0.00147909 0.00293385
-0.00267941 0.00246378 -0.00174751
-0.00373853 0.00236458 -0.00273638
-0.00403856 0.0029525 -0.00255452
-0.00222875 0.00242273 -0.000528372
-0.00345736 0.0022716 -0.0021218
-0.00383038 0.00287037 -0.00202485
-0.00369732 0.00287652 -0.00139498
-0.00351228 0.00288256 -0.000729377
-0.00218742 0.00245954 0.000591986
-0.0033335 0.00292915 7.48425e-06
-0.00265247 0.00244725 0.00184027
-0.00349428 0.0021991 0.00223672
-0.00344641 0.00297429 0.000732256
-0.00370296 0.00290615 0.00147786
-0.00383546 0.00280524 0.0021849
-0.00376128 0.0022337 0.00284885
-0.00404274 0.00283042 0.00271712
-0.00494302 -0.00295183 -0.00230309
-0.00501593 -0.00238372 -0.00297977
-0.00600361 -0.00276446 -0.00272659
-0.00611226 -0.00275579 -0.00217823
-0.00486511 -0.00329176 -0.000874408
-0.00491596 -0.00239208 -0.00235941
-0.00488196 -0.0016152 -0.0024126
-0.00626802 -0.00282221 -0.00149978
-0.00649828 -0.00147779 -0.00225755
-0.00493373 -0.00337015 0.000746054
-0.00488438 -0.00162476 -0.00156609
-0.0048858 -0.00159079 0.00158441
-0.00636941 -0.00288838 -0.000779153
-0.00649981 -0.00289498 2.27278e-05
-0.00640951 -0.00303606 0.000781872
-0.00662092 -0.00147873 -0.00150826
-0.00670957 -0.00149541 0.00160993
-0.00830178 -0.00135554 5.41988e-05
-0.00831571 -0.00131854 0.000692906
-0.00508012 -0.00296196 0.00231159
-0.00506685 -0.00238268 0.00243096
-0.00495236 -0.00156276 0.00247185
-0.00655122 -0.00278247 0.00150663
-0.00660546 -0.00150767 0.00235224
-0.00504895 -0.00238527 0.00307467
-0.00622378 -0.00274886 0.00213482
-0.00605486 -0.00280207 0.00267983
-0.00492845 -0.000879164 -0.00327226
-0.00622371 -0.00218165 -0.00281543
-0.00634829 -0.00215823 -0.00221854
-0.00631643 -0.00152299 -0.00288244
-0.00644876 -0.000813136 -0.00295208
-0.00486723 -0.000839379 0.00333852
-0.00646358 -0.00217708 0.00223365
-0.00628031 -0.00221574 0.00280764
-0.00630388 -0.00156404 0.00293806
-0.0063736 -0.00083476 0.00307343
-0.00501591 0.000852733 -0.00338232
-0.00488766 0.00164306 -0.00150135
-0.00654846 -4.84132e-05 -0.00298517
-0.00669973 0.00156566 -0.00142564
-0.00827274 4.39705e-05 -0.00143339
-0.00827201 0.000634505 -0.00137569
-0.00483134 0.000841167 0.0033788
-0.00489302 0.00159651 0.00154538
-0.00488856 0.00161681 0.00245806
-0.00641621 -8.24037e-05 0.00313687
-0.00671028 0.00157568 0.00144099
-0.0065855 0.00156558 0.00226323
-0.00832977 2.22595e-06 0.001447
-0.00833553 -6.18971e-05 0.00203463
-0.00836614 0.000592346 0.00142774
-0.00827446 0.000533095 0.00204052
-0.00502913 0.00251348 -0.00305026
-0.00499113 0.0025478 -0.00238315
-0.00492825 0.00251645 -0.00155678
-0.00653451 0.000824209 -0.00287845
-0.00662481 0.00154883 -0.00284361
-0.00630935 0.00230513 -0.00273319
-0.00649415 0.00227809 -0.00213608
-0.0066115 0.0023317 -0.00141656
-0.00819047 0.00126258 -0.00123479
-0.00511751 0.00237857 0.00246151
-0.00501853 0.00240426 0.00312723
-0.00639116 0.000753279 0.00306724
-0.00641552 0.00151172 0.00294267
-0.00650536 0.00227192 0.00219165
-0.00628232 0.00223616 0.00278992
-0.00808563 0.00118422 0.00190627
-0.00499423 0.00312815 -0.00226383
-0.00599906 0.00291341 -0.00259125
-0.00613175 0.00285804 -0.00205533
-0.00485556 0.00333537 -0.000781292
-0.00633105 0.00292435 -0.00146036
-0.00488806 0.00334656 0.000803182
-0.00631508 0.00300931 -0.000734535
-0.00633817 0.00309451 3.29046e-05
-0.00639418 0.00295707 0.000807194
-0.00811563 0.00136796 8.42418e-06
-0.00802929 0.00193816 1.31574e-05
-0.00508878 0.00299894 0.00233759
-0.00654403 0.0027927 0.00151716
-0.00623227 0.00278478 0.00212079
-0.00601949 0.00283642 0.00265507
-0.00733585 -0.00261006 -0.00188867
-0.00745415 -0.00189323 -0.00265477
-0.00832149 -0.00152601 -0.00218939
-0.00864374 -0.00111436 -0.00200853
-0.00783365 -0.00259994 -0.000534597
-0.00780888 -0.00190162 -0.00199908
-0.00798916 -0.00126041 -0.00199278
-0.00904704 -0.00185775 -0.00122323
-0.00925842 -0.00188591 -0.000823387
-0.00915614 -0.00199228 -0.000477585
-0.00925698 -0.00134264 -0.0013128
-0.00931766 -0.00130856 -0.000851725
-0.00934248 -0.00141237 -0.000394523
-0.00935407 -0.000812214 -0.000857628
-0.00940735 -0.000887473 -0.000398996
-0.00786501 -0.00259869 0.000641414
-0.00814642 -0.00126814 -0.00128908
-0.00921148 -0.0019487 2.37164e-05
-0.00939249 -0.00145175 1.16503e-05
-0.0094558 -0.00101707 -4.53537e-07
-0.00945132 -0.00105948 0.00035939
-0.00739471 -0.00259049 0.00185775
-0.00786615 -0.00190449 0.00200365
-0.00803551 -0.00128657 0.00201229
-0.00915218 -0.00203254 0.000501279
-0.0092822 -0.00187192 0.000828695
-0.00906535 -0.00185432 0.00120056
-0.00936621 -0.00145479 0.000409228
-0.00935082 -0.00130295 0.00084754
-0.00927463 -0.00134521 0.00129221
-0.00940468 -0.000813692 0.00084601
-0.00748263 -0.00193361 0.00263766
-0.00834619 -0.00153829 0.00214827
-0.00865966 -0.00113632 0.00197756
-0.00783489 -0.000541623 -0.00271915
-0.00906669 -0.000758639 -0.0018984
-0.00930678 -0.000761402 -0.00138382
-0.00936081 -0.000354761 -0.00138911
-0.00774454 -0.000571594 0.00274823
-0.00932836 -0.000782052 0.00134216
-0.0090627 -0.000789229 0.00185632
-0.00937225 -0.000366634 0.00131895
-0.00800428 0.000692756 -0.00261666
-0.00915619 -0.000276958 -0.00203452
-0.00930297 -2.75821e-05 -0.00199624
-0.00941399 -1.95413e-05 -0.00151793
-0.00942431 4.41559e-05 -0.00106602
-0.00930196 0.000214339 -0.00203636
-0.00941226 0.000367164 -0.00158015
-0.00945514 0.000377387 -0.00118877
-0.00776171 0.000646783 0.00261068
-0.00914 -0.000274985 0.00195621
-0.009364 2.69074e-05 0.00133809
-0.00925597 -5.6489e-05 0.00193331
-0.00943817 0.000259701 0.00143484
-0.00923885 0.000139848 0.00199486
-0.00759022 0.00182351 -0.00250918
-0.00791324 0.00183089 -0.00188439
-0.00804469 0.0018871 -0.00120537
-0.00912311 0.000763281 -0.00190681
-0.00931244 0.000809107 -0.00143146
-0.00935624 0.000822987 -0.000980844
-0.00791221 0.00183379 0.00188514
-0.00752597 0.00181447 0.00252568
-0.00930197 0.000701968 0.0013075
-0.00903384 0.000687562 0.00184996
-0.00731309 0.0025064 -0.00180636
-0.00871181 0.00109758 -0.00199025
-0.00836848 0.00148613 -0.00219719
-0.00766443 0.00257758 -0.00051936
-0.00925602 0.00131935 -0.00133026
-0.00931731 0.00131516 -0.000884645
-0.00933353 0.00130621 -0.00046423
-0.00902475 0.00185901 -0.00126972
-0.00920328 0.00196145 -0.000830613
-0.00912337 0.00195784 -0.000494091
-0.00770431 0.00267677 0.000516082
-0.0092142 0.00124342 2.68411e-07
-0.00913725 0.00187191 1.0516e-05
-0.00735499 0.00249861 0.00181292
-0.00932772 0.00120076 0.000435571
-0.00931048 0.0012211 0.000887688
-0.00928402 0.00127846 0.0012852
-0.00915243 0.00186549 0.000521297
-0.00924753 0.00185041 0.000805208
-0.00905426 0.00180762 0.00122
-0.00869402 0.00105301 0.00195551
-0.00835918 0.00146182 0.00215322
-0.01 0 0
-0.01 0 0
-0.01 0 0
-0.01 0 0
-0.01 0 0
-0.01 0 0
-0.01 0 0
-0.01 0 0
-0.01 0 0
-0.01 0 0
-0.01 0 0
-0.01 0 0
-0.01 0 0
-0.01 0 0
-0.01 0 0
-0.01 0 0
-0.01 0 0
-0.01 0 0
-0.01 0 0
-0.01 0 0
-0.01 0 0
-0.01 0 0
-0.01 0 0
-0.01 0 0
-0.01 0 0
-0.01 0 0
-0.01 0 0
-0.01 0 0
-0.01 0 0
-0.01 0 0
-0.01 0 0
-0.01 0 0
-0.01 0 0
-0.01 0 0
-0.01 0 0
-0.01 0 0
-0.01 0 0
-0.01 0 0
-0.01 0 0
-0.01 0 0
-0.01 0 0
-0.01 0 0
-0.01 0 0
-0.01 0 0
-0.01 0 0
-0.01 0 0
-0.01 0 0
-0.01 0 0
-0.01 0 0
-0.01 0 0
-0.01 0 0
-0.01 0 0
-0.01 0 0
-0.01 0 0
-0.01 0 0
-0.01 0 0
-0.00828537 0.00204949 -0.00193444
-0.00901056 0.000873058 -0.00168343
-0.00427573 -0.00289947 0.00200674
-0.00948922 0.00156317 -0.000732711
-0.01 0 0
-0.00955356 0.0010922 -0.00109423
0 0 0
-0.01 0 0
0 0 0
-0.00297686 0.00274939 -0.000429649
-0.01 0 0
-0.00915009 -6.62507e-05 0.0011595
-0.00351303 0.00276231 -0.00211942
-0.00422689 0.00267865 -0.00276367
-0.01 0 0
-0.00864949 -0.000559878 0.0022578
-0.00965776 -0.000319819 0.00111837
-0.00169758 -0.00198947 -0.00181954
-0.000988624 -0.000851247 -0.00159045
-0.00390073 -0.000590985 -0.00311318
-0.00671076 -0.00187509 -0.00277583
-0.0042369 -0.00248351 -0.00275507
-0.00349293 -0.00262065 -0.00216731
-0.00123875 0.0021474 0.000340368
-0.000345022 -0.000792099 -0.000723064
-0.00325503 -0.00183046 -0.00265722
-0.00324602 -0.00223933 -0.00221691
0 0 0
-0.00967027 -0.000175727 0.00117257
-0.01 0 0
-0.00953612 -0.000204851 0.00159871
-0.0015223 0.00118611 -0.00207018
0 0 0
-0.000440733 -0.0010593 -0.000997934
-0.000492992 -0.00150542 -0.000647194
-0.000363704 -0.00111681 -0.000705818
-0.00420559 0.00297945 -0.00190737
-0.0041027 0.0025947 -0.00240292
-0.000782366 -0.000565321 -0.00106398
-0.01 0 0
-0.000989988 -0.00129108 -0.000265237
0 0 0
-0.000449202 0.000236793 -0.00153558
0 0 0
-0.00689042 0.00192096 -0.00267794
-0.00821391 0.00123905 0.000879005
-0.0040279 -0.00309498 0.00095425
-0.00842728 0.00117827 0.00220362
-0.00653285 0.00268437 0.00220961
-0.00579529 0.00253918 0.00282714
-0.00398645 0.00259068 -0.00195898
-0.00131444 -0.00051209 -0.00217398
-0.000450663 -0.000490091 -0.00103285
-0.00154901 0.00114295 0.00211666
0 0 0
-0.000478428 -0.00147736 0.000647637
0 0 0
-0.000345617 -0.00109455 0.000699877
-0.01 0 0
-0.00137215 0.00156658 -0.00171279
-0.00172372 0.00199988 -0.00177891
-0.000977242 0.000834753 -0.00155568
-0.000438168 0.00103472 -0.000971202
-0.000489995 0.00147615 -0.000624634
-0.000360191 0.00107567 -0.000686124
0 0 0
0 0 0
-0.000342244 0.000521137 -0.000999716
-0.000333756 0.000748989 -0.000710817
-0.00114892 0.00124656 -0.00161749
0 0 0
0 0 0
-0.000338538 -0.000219212 -0.001146
0 0 0
-0.000314596 -4.99672e-05 -0.0011595
-0.000317527 7.76921e-05 -0.00111392
-0.000443389 -6.95087e-05 -0.00155514
0 0 0
-0.000466862 0.00022189 0.00161349
-0.00416431 -0.00284424 -0.00196289
-0.00397855 -0.00247401 -0.00197907
-0.00410464 -0.00244282 -0.0023911
-0.000989493 0.000810658 0.0015636
-0.00136246 0.00154074 0.00175572
-0.00171715 0.00196656 0.0018204
-0.00689292 0.000985242 0.00288845
0 0 0
-0.000349172 0.00110679 -0.000496384
0 0 0
-0.000356217 0.00121731 -0.000308548
-0.000484478 0.0015948 -0.000423519
-0.00970849 0.000124301 0.000930272
0 0 0
-0.000487995 -0.0016118 -0.00043951
-0.00256979 0.00196401 0.000455575
-0.00124583 0.000553828 0.00219572
-0.000330089 0.000312166 0.0011392
-0.000331806 0.000188912 0.00119472
-0.00125247 -0.00218161 -0.000264802
-0.000341647 -0.00118361 -0.000144304
-0.00129564 -0.000530855 0.00218043
0 0 0
-0.000322843 0.00112345 0.000220561
-0.000459078 0.00151979 0.000485391
0 0 0
-0.000325426 0.0011439 0.000369376
-0.000292046 0.000847389 0.000329615
-0.000318886 0.00104733 0.000529664
-0.0018191 -0.00205861 -0.000370552
-0.00301067 -0.00275016 -0.000497784
-0.00100163 -0.00174098 -0.000269508
-0.00124462 0.000603253 -0.00212856
-0.000318234 0.000330943 -0.00106994
-0.000316461 0.000206431 -0.00112786
-0.00114926 0.00121367 0.00166059
-0.000348437 0.000504416 0.00105422
-0.000987908 0.00120834 0.00129843
-0.000315787 0.000738004 0.000728447
0 0 0
-0.000424739 0.00100333 0.00096833
-0.000469058 0.0014354 0.000638085
-0.000338085 0.00104782 0.000694469
-0.000326015 -0.000783956 0.000722755
-0.000426473 -0.000499075 0.00102304
-0.000430352 -0.00103453 0.00098134
-0.000997369 -0.000832699 0.00158096
-0.00170811 -0.00197896 0.0018358
-0.00965663 0.00106572 0.000597693
-0.01 0 0
-0.000767618 0.00114031 0.000376887
0 0 0
-0.00076303 0.000799184 0.000744654
-0.00881222 0.00124007 0.00177314
-0.00965448 0.000789689 0.000863382
-0.00160444 -0.00114085 -0.00211829
-0.00121943 -0.00120799 -0.00166407
-0.00231127 -0.00192436 -0.00206398
-0.00138811 -0.00155684 -0.00175862
-0.00655115 -0.00268087 0.00224476
-0.00580846 -0.00249721 0.00281986
-0.008253 3.45434e-05 -0.00180275
-0.000340207 -0.000253302 0.00115702
-0.000315969 -0.000103928 0.000873559
0 0 0
-0.00954929 -0.000195606 -0.00165298
-0.01 0 0
-0.00174341 -0.0003228 -0.00218377
-0.000722738 -0.000242663 -0.00146364
-0.000280122 -7.16284e-05 -0.000868113
-0.00201386 0.00196581 -0.00112027
-0.00397814 0.00304976 -0.00101458
-0.00304559 -0.00093506 0.00277956
-0.00103454 -0.000526989 0.00175023
0 0 0
-0.000340791 -0.000878855 -0.000250984
-0.000351406 -0.00112827 -0.000507996
-0.000357705 -0.00122855 -0.000317355
-0.01 0 0
-0.01 0 0
-0.00950087 0.00159896 -0.000516704
-0.00124756 -0.00214782 0.000338378
-0.000331241 -0.00111963 3.82593e-05
-0.00352308 -0.00263918 0.00226351
-0.00414745 -0.00244906 0.00249551
-0.00427093 -0.00248382 0.00285378
-0.000326278 -0.00107551 0.000527878
0 0 0
-0.00326381 -0.00224874 0.00229953
-0.00327702 -0.00180494 0.00272269
-0.00189047 -0.000748996 0.00206733
-0.00180927 -0.000354132 0.00210053
-0.00387049 -0.000530879 0.00310558
-0.00197278 -0.00113405 0.00199354
-0.00304449 -0.00179663 0.00231552
-0.00104163 -0.00121372 0.00128598
-0.00898304 0.00131857 -0.000723158
-0.00951208 0.00150315 0.000689917
-0.01 0 0
-0.00964073 0.00112198 0.000785682
-0.00683408 -0.0018623 -0.00238165
-0.00686977 -0.000979805 -0.00286605
0 0 0
-0.000456067 -0.000110054 0.00159986
-0.000333362 5.21931e-05 0.00117984
-0.000326271 -8.24129e-05 0.00119314
-0.00424647 0.0025481 0.00289994
-0.00351879 0.00269455 0.00227836
0 0 0
-0.000326261 -0.00111971 0.000219325
-0.000463556 -0.00152267 0.000480158
-0.000328955 -0.00113809 0.000366663