# vtk DataFile Version 3.0
vtk output at time 1
ASCII
DATASET UNSTRUCTURED_GRID
POINTS 1331 float
0 0 0 0 0 0.05 0 0 0.1 
0 0 0.15 0 0 0.2 0 0.05 0 
0 0.05 0.05 0 0.05 0.1 0 0.05 0.15 
0 0.05 0.2 0 0.1 0 0 0.1 0.05 
0 0.1 0.1 0 0.1 0.15 0 0.1 0.2 
0 0.15 0 0 0.15 0.05 0 0.15 0.1 
0 0.15 0.15 0 0.15 0.2 0 0.2 0 
0 0.2 0.05 0 0.2 0.1 0 0.2 0.15 
0 0.2 0.2 0.0333997 -0.00934576 -0.00961163 0.0373141 -0.00926151 0.0451855 
0.0395487 -0.00974655 0.100105 0.0380412 -0.00952928 0.154723 0.0331338 -0.00958303 0.209536 
0.03804 0.0456509 -0.0098512 0.0381553 0.0453932 0.209806 0.0391741 0.100443 -0.00946457 
0.038732 0.100099 0.20943 0.0392992 0.15491 -0.00962041 0.0390176 0.154721 0.209873 
0.0333509 0.209648 -0.00928313 0.0374474 0.209302 0.0454769 0.0397923 0.209629 0.100231 
0.0382731 0.20947 0.154736 0.0331804 0.209627 0.209492 0.0748727 -0.012502 -0.012077 
0.0754398 -0.0138892 0.0428924 0.0760981 -0.0141223 0.0997432 0.0740674 -0.0140985 0.156834 
0.0746954 -0.0126907 0.212466 0.0745806 0.0426951 -0.0132659 0.0744066 0.0427977 0.213902 
0.0757754 0.0999165 -0.0140832 0.0763208 0.0999706 0.214343 0.0748828 0.157606 -0.014374 
0.0751195 0.157216 0.214406 0.0750441 0.213306 -0.0120294 0.075004 0.214207 0.0433488 
0.0768142 0.214228 0.100201 0.0744444 0.213897 0.15709 0.0750009 0.212816 0.212732 
0.116971 -0.0105706 -0.0101663 0.112658 -0.010604 0.0449829 0.110337 -0.0101967 0.100289 
0.112247 -0.0102597 0.154979 0.116692 -0.0106324 0.209913 0.112421 0.0450615 -0.0113564 
0.112454 0.0448457 0.211235 0.110206 0.10019 -0.0107832 0.110895 0.0998988 0.210654 
0.110914 0.155001 -0.0106081 0.111692 0.154612 0.210278 0.116655 0.209804 -0.0100167 
0.113617 0.209949 0.0451702 0.111382 0.210359 0.10015 0.112988 0.210299 0.154948 
0.116857 0.209672 0.209986 0.15 0 0 0.15 0 0.05 
0.15 0 0.1 0.15 0 0.15 0.15 0 0.2 
0.15 0.05 0 0.15 0.05 0.05 0.15 0.05 0.1 
0.15 0.05 0.15 0.15 0.05 0.2 0.15 0.1 0 
0.15 0.1 0.05 0.15 0.1 0.1 0.15 0.1 0.15 
0.15 0.1 0.2 0.15 0.15 0 0.15 0.15 0.05 
0.15 0.15 0.1 0.15 0.15 0.15 0.15 0.15 0.2 
0.15 0.2 0 0.15 0.2 0.05 0.15 0.2 0.1 
0.15 0.2 0.15 0.15 0.2 0.2 0 0 0.025 
0 0.025 0 0.0151969 -0.00576216 -0.0079712 0.0194403 -0.00726521 0.0202003 
0 0 0.075 0 0.025 0.025 0 0.025 0.05 
0 0.025 0.075 0.0205247 -0.00730123 0.0467644 0 0 0.125 
0 0.025 0.1 0.0202978 -0.00747925 0.0731507 0.0206604 -0.00709626 0.100164 
0.0205374 -0.00722345 0.127079 0 0 0.175 0 0.025 0.125 
0 0.025 0.15 0 0.025 0.175 0.0207843 -0.0071517 0.153198 
0 0.025 0.2 0.0196183 -0.00727096 0.179603 0.0150924 -0.00585882 0.207809 
0 0.05 0.025 0 0.075 0 0 0.075 0.025 
0.0172316 0.0208319 -0.00738587 0.0207983 0.0197805 0.020227 0.0193224 0.0473738 -0.00680976 
0.0209325 0.0748629 -0.00732444 0 0.05 0.075 0 0.075 0.05 
0.0212096 0.0200186 0.047176 0.0210327 0.0473248 0.0201548 0.0221146 0.0742961 0.0197724 
0.0400305 0.0180044 0.0451357 0.0411684 0.0176108 0.0725351 0.0402283 0.0453949 0.0177764 
0.0419682 0.0728227 0.0172228 0 0.05 0.125 0 0.075 0.075 
0 0.075 0.1 0 0.075 0.125 0.021567 0.0197881 0.0735636 
0.0219769 0.0199303 0.100137 0.0219749 0.0200958 0.126604 0.0415986 0.017409 0.0998145 
0.0423781 0.0172071 0.127762 0.0430254 0.072734 0.0443432 0 0.05 0.175 
0 0.075 0.15 0.0217552 0.0201349 0.152939 0.0212748 0.0471282 0.179789 
0.021907 0.0739688 0.18024 0.041584 0.0175512 0.155038 0.0406365 0.0451638 0.182283 
0.0414362 0.0725231 0.182608 0 0.075 0.175 0 0.075 0.2 
0.021012 0.0197442 0.179683 0.017241 0.0207397 0.207269 0.0195082 0.0471684 0.206797 
0.0208016 0.0745398 0.207414 0 0.1 0.025 0 0.125 0 
0.0209722 0.100594 -0.00708656 0 0.1 0.075 0 0.125 0.025 
0 0.125 0.05 0 0.125 0.075 0.0221098 0.100517 0.0202079 
0.0223117 0.126669 0.0201454 0.0428265 0.100091 0.0171478 0.0427879 0.12797 0.0173666 
0 0.1 0.125 0 0.125 0.1 0.0422045 0.0442779 0.0999022 
0.042989 0.0443721 0.127719 0.0430996 0.100091 0.0442362 0.0421083 0.100004 0.155954 
0.0433774 0.127877 0.0445087 0.0425531 0.127642 0.155628 0.0424043 0.155752 0.100099 
0.0429118 0.1555 0.127872 0.0753569 0.0999784 0.100054 0 0.1 0.175 
0 0.125 0.125 0 0.125 0.15 0 0.125 0.175 
0.0218376 0.100269 0.180108 0.0220527 0.126533 0.180178 0.0425303 0.0445326 0.155108 
0.04169 0.0999146 0.182788 0.041803 0.127645 0.182659 0.0428345 0.155511 0.155204 
0 0.125 0.2 0.0207433 0.100348 0.207381 0 0.15 0.025 
0 0.175 0 0 0.175 0.025 0.0206406 0.126388 -0.00713212 
0.0205543 0.153019 -0.00656183 0.017644 0.179048 -0.00710633 0.0208998 0.180031 0.0203549 
0 0.15 0.075 0 0.175 0.05 0.021895 0.15288 0.0203614 
0.0213111 0.179884 0.0472868 0.0418954 0.155152 0.0177571 0.0407643 0.182265 0.0453331 
0.0415077 0.182432 0.0726955 0 0.15 0.125 0 0.175 0.075 
0 0.175 0.1 0 0.175 0.125 0.0216798 0.180102 0.0736432 
0.0220666 0.179951 0.100178 0.0220116 0.179915 0.126641 0.0427709 0.155167 0.0447006 
0.0419494 0.18255 0.100053 0.042503 0.182775 0.12789 0 0.15 0.175 
0 0.175 0.15 0.0217523 0.152785 0.180006 0.0218027 0.179722 0.152961 
0.0414448 0.154943 0.182611 0.0419519 0.182538 0.155144 0 0.175 0.175 
0 0.175 0.2 0.0203585 0.126242 0.207509 0.02034 0.15292 0.206908 
0.0210985 0.179975 0.179729 0.0174696 0.179013 0.207209 0 0.2 0.025 
0.015394 0.205655 -0.00775789 0.0195391 0.207137 0.0203961 0 0.2 0.075 
0.0205953 0.207209 0.0468756 0 0.2 0.125 0.0204049 0.207339 0.0732758 
0.0207683 0.206975 0.100222 0.0205901 0.20717 0.127116 0 0.2 0.175 
0.0208879 0.206961 0.15327 0.0197539 0.20702 0.179599 0.0152311 0.205624 0.207785 
0.0355172 -0.00936149 0.017442 0.036533 0.018113 -0.0100281 0.0539261 -0.0112965 -0.0106878 
0.0555636 0.0159468 -0.0111933 0.0384971 -0.00952466 0.0726921 0.0389368 0.0180729 0.0174714 
0.0551998 -0.0111181 0.0163083 0.0565651 -0.0114204 0.0437345 0.0572348 -0.0116251 0.0715265 
0.0572835 0.0160668 0.0161351 0.0388222 -0.00952879 0.127412 0.0581058 -0.0118394 0.0998219 
0.0356205 -0.00955798 0.182483 0.0392013 0.017849 0.182515 0.0577222 -0.012011 0.128009 
0.0564206 -0.0117992 0.156095 0.0551875 -0.0114086 0.183908 0.0573417 0.0158625 0.184117 
0.0364836 0.0178669 0.210041 0.0537005 -0.0115365 0.210917 0.0554186 0.015774 0.211432 
0.038677 0.0727889 -0.00964664 0.0564869 0.0438801 -0.0115787 0.0386028 0.0725594 0.209648 
0.0564767 0.0438009 0.211781 0.0393198 0.127515 -0.00956094 0.0576905 0.0717814 -0.0118959 
0.0580776 0.100131 -0.0119779 0.0581023 0.128339 -0.0120336 0.038991 0.127282 0.209769 
0.0576342 0.0717769 0.211964 0.0579196 0.0999168 0.211871 0.0579853 0.128069 0.212042 
0.0371375 0.1824 -0.00976425 0.0396174 0.182316 0.0177798 0.0573738 0.156668 -0.011783 
0.0396342 0.182199 0.182538 0.0368503 0.182223 0.210086 0.0572548 0.156297 0.211975 
0.0356024 0.209515 0.0178014 0.0560019 0.184791 -0.0110772 0.0539625 0.212055 -0.0103251 
0.0387161 0.209449 0.0729367 0.0579532 0.184483 0.016197 0.0553994 0.211707 0.0166233 
0.0565582 0.211732 0.0441707 0.0575585 0.211692 0.0719818 0.0390465 0.209506 0.12747 
0.0585684 0.211828 0.100136 0.0357587 0.209505 0.182465 0.0577806 0.184211 0.184312 
0.0580963 0.211993 0.128197 0.0567787 0.211755 0.156266 0.0554384 0.211459 0.184032 
0.0557395 0.184344 0.211603 0.0538812 0.211648 0.210992 0.0753484 -0.0125242 0.0149264 
0.0749477 0.014697 -0.0126593 0.0960364 -0.0114087 -0.0113174 0.0953127 -0.0113634 0.0157466 
0.0758304 -0.0139811 0.0711379 0.0755184 0.0146246 0.0147632 0.0757593 0.0429813 0.0146602 
0.0940828 -0.0115991 0.0434609 0.0925389 0.0436419 0.0154877 0.0757635 -0.0143454 0.128356 
0.0758199 0.0429998 0.0432894 0.0756896 0.0431208 0.15682 0.0934558 -0.0118264 0.0715623 
0.0926509 -0.0118723 0.100033 0.0932569 -0.0122893 0.12836 0.0916598 0.0436524 0.0435374 
0.0909737 0.043555 0.156803 0.107933 0.0442698 0.100203 0.107932 0.0444285 0.127846 
0.0747432 -0.0127577 0.185178 0.0747943 0.0145426 0.185554 0.075389 0.0430778 0.185657 
0.0928398 -0.0115824 0.15655 0.091853 0.0434796 0.184844 0.0747284 0.0145837 0.213133 
0.0946905 -0.0114518 0.18408 0.0957795 -0.0116393 0.211094 0.0755519 0.07114 -0.0137107 
0.0946913 0.0158103 -0.0116399 0.0937314 0.0159033 0.0156365 0.0939008 0.043515 -0.0119113 
0.0929336 0.0714796 -0.0121842 0.0756798 0.0712411 0.21413 0.0929869 0.0157581 0.184409 
0.0943314 0.015607 0.21156 0.0938285 0.0433004 0.212054 0.0931305 0.0713283 0.212584 
0.0754033 0.128801 -0.014147 0.075899 0.157095 0.0435669 0.0924501 0.0998022 -0.0122507 
0.0912089 0.15666 0.0438349 0.108128 0.100148 0.0439968 0.10823 0.127614 0.0442208 
0.0760252 0.128732 0.214323 0.0757463 0.156822 0.156713 0.0759311 0.157062 0.185605 
0.0927837 0.0995974 0.212823 0.0910374 0.156599 0.156306 0.0917824 0.15656 0.184749 
0.107777 0.0999399 0.156092 0.108066 0.0996326 0.183284 0.107493 0.127335 0.156134 
0.108322 0.127103 0.183351 0.0751611 0.185995 -0.0129217 0.0754554 0.186086 0.0147521 
0.0759067 0.18597 0.0432655 0.0926759 0.128535 -0.0118714 0.0925625 0.156711 -0.0117859 
0.0943656 0.184821 -0.0113093 0.0931035 0.184655 0.016005 0.0920839 0.184808 0.0438761 
0.108701 0.155252 0.044643 0.0748539 0.185358 0.185735 0.0750346 0.185503 0.213456 
0.0930201 0.128046 0.212686 0.0932 0.156306 0.212269 0.0929362 0.184545 0.184488 
0.0944489 0.184416 0.211768 0.109209 0.154832 0.183028 0.0752839 0.213347 0.0151709 
0.0962271 0.212182 -0.0106297 0.0953959 0.211822 0.0163231 0.0761002 0.21421 0.0716182 
0.0939589 0.212134 0.0437146 0.0760954 0.214199 0.128718 0.0938334 0.212443 0.071841 
0.0935274 0.212776 0.100188 0.0933017 0.212158 0.128585 0.108977 0.155791 0.100044 
0.109851 0.182932 0.100084 0.0748768 0.212837 0.185396 0.0929396 0.211614 0.156704 
0.0948391 0.211472 0.184184 0.0961372 0.211715 0.211142 0.114921 -0.0105009 0.016912 
0.114017 0.0170964 -0.0110153 0.135405 -0.00621072 -0.0085749 0.13327 0.0202273 -0.00820199 
0.111337 -0.0104728 0.0726221 0.111767 0.0170798 0.0165887 0.11044 0.0446941 0.0166986 
0.130876 -0.00766115 0.0196677 0.129552 -0.00757455 0.0462799 0.12989 -0.00788518 0.0728008 
0.129554 0.019266 0.0193262 0.12875 0.0195279 0.0462263 0.12854 0.0191786 0.0731555 
[...]
POINT_DATA 1331
VECTORS displacement float
0 0 0
0 0 0
0 0 0
0 0 0
0 0 0
0 0 0
0 0 0
0 0 0
0 0 0
0 0 0
0 0 0
0 0 0
0 0 0
0 0 0
0 0 0
0 0 0
0 0 0
0 0 0
0 0 0
0 0 0
0 0 0
0 0 0
0 0 0
0 0 0
0 0 0
-0.0166003 -0.00934576 -0.00961163
-0.0126859 -0.00926151 -0.00481446
-0.0104513 -0.00974655 0.000104683
-0.0119588 -0.00952928 0.00472281
-0.0168662 -0.00958303 0.009536
-0.01196 -0.00434905 -0.0098512
-0.0118448 -0.00460676 0.00980562
-0.0108259 0.000442519 -0.00946457
-0.011268 9.93207e-05 0.0094297
-0.0107008 0.00491023 -0.00962041
-0.0109824 0.00472069 0.00987254
-0.0166491 0.00964784 -0.00928313
-0.0125526 0.00930205 -0.00452309
-0.0102077 0.00962907 0.000231162
-0.0117269 0.00947034 0.00473557
-0.0168196 0.00962744 0.00949186
-0.0251273 -0.012502 -0.012077
-0.0245602 -0.0138892 -0.00710759
-0.0239019 -0.0141223 -0.000256837
-0.0259326 -0.0140985 0.00683377
-0.0253046 -0.0126907 0.0124658
-0.0254194 -0.00730489 -0.0132659
-0.0255934 -0.00720226 0.0139025
-0.0242246 -8.3538e-05 -0.0140832
-0.0236792 -2.94161e-05 0.0143434
-0.0251172 0.00760575 -0.014374
-0.0248806 0.007216 0.0144058
-0.0249559 0.0133063 -0.0120294
-0.024996 0.0142072 -0.00665123
-0.0231858 0.0142281 0.000201241
-0.0255556 0.0138974 0.00709038
-0.0249991 0.0128162 0.0127323
-0.0330291 -0.0105706 -0.0101663
-0.0373424 -0.010604 -0.00501711
-0.0396627 -0.0101967 0.000289375
-0.0377535 -0.0102597 0.00497939
-0.0333075 -0.0106324 0.00991305
-0.037579 -0.00493852 -0.0113564
-0.037546 -0.00515426 0.0112354
-0.039794 0.00019013 -0.0107832
-0.039105 -0.000101193 0.010654
-0.0390862 0.00500054 -0.0106081
-0.0383081 0.0046123 0.010278
-0.0333448 0.00980372 -0.0100167
-0.0363829 0.00994897 -0.00482982
-0.0386183 0.0103593 0.00014951
-0.0370124 0.0102986 0.00494799
-0.0331432 0.00967223 0.00998577
-0.05 0 0
-0.05 0 0
-0.05 0 0
-0.05 0 0
-0.05 0 0
-0.05 0 0
-0.05 0 0
-0.05 0 0
-0.05 0 0
-0.05 0 0
-0.05 0 0
-0.05 0 0
-0.05 0 0
-0.05 0 0
-0.05 0 0
-0.05 0 0
-0.05 0 0
-0.05 0 0
-0.05 0 0
-0.05 0 0
-0.05 0 0
-0.05 0 0
-0.05 0 0
-0.05 0 0
-0.05 0 0
0 0 0
0 0 0
-0.00980314 -0.00576216 -0.0079712
-0.00555973 -0.00726521 -0.00479966
0 0 0
0 0 0
0 0 0
0 0 0
-0.00447526 -0.00730123 -0.00323557
0 0 0
0 0 0
-0.00470216 -0.00747925 -0.00184929
-0.00433962 -0.00709626 0.000164259
-0.00446262 -0.00722345 0.00207875
0 0 0
0 0 0
0 0 0
0 0 0
-0.00421567 -0.0071517 0.00319758
0 0 0
-0.00538169 -0.00727096 0.00460282
-0.00990763 -0.00585882 0.00780947
0 0 0
0 0 0
0 0 0
-0.00776836 -0.0041681 -0.00738587
-0.00420168 -0.00521946 -0.00477303
-0.00567759 -0.00262618 -0.00680976
-0.00406751 -0.000137152 -0.00732444
0 0 0
0 0 0
-0.00379036 -0.00498145 -0.00282404
-0.00396734 -0.00267515 -0.00484523
-0.00288543 -0.000703916 -0.00522765
-0.00996954 -0.00699555 -0.00486432
-0.0088316 -0.0073892 -0.00246493
-0.00977166 -0.0046051 -0.00722363
-0.00803181 -0.00217732 -0.00777722
0 0 0
0 0 0
0 0 0
0 0 0
-0.00343297 -0.00521193 -0.00143639
-0.00302307 -0.00506968 0.000137119
-0.00302509 -0.00490417 0.001604
-0.00840136 -0.00759097 -0.000185552
-0.00762194 -0.00779295 0.00276214
-0.00697463 -0.00226603 -0.00565676
0 0 0
0 0 0
-0.00324479 -0.00486509 0.00293867
-0.0037252 -0.00287184 0.00478934
-0.00309303 -0.00103117 0.00524016
-0.00841599 -0.00744879 0.00503778
-0.00936346 -0.0048362 0.00728318
-0.00856377 -0.00247695 0.00760758
0 0 0
0 0 0
-0.00398798 -0.0052558 0.00468268
-0.00775904 -0.00426028 0.00726897
-0.00549181 -0.00283157 0.00679702
-0.00419837 -0.000460212 0.00741379
0 0 0
0 0 0
-0.00402777 0.000594342 -0.00708656
0 0 0
0 0 0
0 0 0
0 0 0
-0.00289021 0.000516813 -0.00479209
-0.00268834 0.00166907 -0.00485465
-0.0071735 9.08084e-05 -0.00785225
-0.00721214 0.00296966 -0.00763338
0 0 0
0 0 0
-0.00779546 -0.00572212 -9.77555e-05
-0.00701104 -0.00562787 0.00271928
-0.00690038 9.0958e-05 -0.00576383
-0.0078917 4.35111e-06 0.00595366
-0.00662257 0.00287743 -0.00549127
-0.0074469 0.00264167 0.0056283
-0.00759573 0.00575242 9.86983e-05
-0.00708816 0.00549992 0.00287229
-0.0246431 -2.16082e-05 5.37596e-05
0 0 0
0 0 0
0 0 0
0 0 0
-0.00316243 0.000269489 0.00510841
-0.00294728 0.00153349 0.00517757
-0.00746968 -0.00546737 0.00510829
-0.00830996 -8.53521e-05 0.00778806
-0.00819699 0.00264528 0.00765891
-0.00716552 0.0055109 0.00520375
0 0 0
-0.00425675 0.000347595 0.00738144
0 0 0
0 0 0
0 0 0
-0.00435939 0.00138772 -0.00713212
-0.00444569 0.00301862 -0.00656183
-0.00735603 0.00404828 -0.00710633
-0.00410025 0.00503061 -0.0046451
0 0 0
0 0 0
-0.003105 0.00287997 -0.00463862
-0.00368889 0.00488368 -0.00271322
-0.00810463 0.00515159 -0.00724288
-0.00923573 0.00726502 -0.00466685
-0.00849226 0.00743196 -0.00230448
0 0 0
0 0 0
0 0 0
0 0 0
-0.00332022 0.00510216 -0.00135677
-0.00293336 0.0049509 0.000178423
-0.00298838 0.00491513 0.00164147
-0.00722913 0.00516676 -0.00529941
-0.00805056 0.00755016 5.33367e-05
-0.00749701 0.00777503 0.00288959
0 0 0
0 0 0
-0.00324768 0.00278469 0.00500626
-0.00319727 0.00472181 0.00296063
-0.00855517 0.0049427 0.00761106
-0.00804811 0.00753786 0.0051445
0 0 0
0 0 0
-0.00464148 0.00124183 0.00750947
-0.00465999 0.00291979 0.00690797
-0.00390155 0.00497474 0.00472906
-0.00753041 0.00401264 0.00720884
0 0 0
-0.00960603 0.00565511 -0.00775789
-0.00546086 0.00713678 -0.00460394
0 0 0
-0.00440465 0.00720917 -0.00312445
0 0 0
-0.00459514 0.00733861 -0.00172424
-0.00423173 0.00697464 0.000222172
-0.00440986 0.00717038 0.00211595
0 0 0
-0.00411205 0.00696096 0.00327038
-0.00524612 0.00701973 0.00459937
-0.0097689 0.0056236 0.00778454
-0.0144828 -0.00936149 -0.00755802
-0.013467 -0.00688696 -0.0100281
-0.0210739 -0.0112965 -0.0106878
-0.0194364 -0.00905317 -0.0111933
-0.0115029 -0.00952466 -0.00230786
-0.0110632 -0.00692712 -0.00752857
-0.0198002 -0.0111181 -0.00869173
-0.0184349 -0.0114204 -0.0062655
-0.0177652 -0.0116251 -0.0034735
-0.0177165 -0.00893315 -0.00886489
-0.0111778 -0.00952879 0.00241168
-0.0168942 -0.0118394 -0.000178081
-0.0143796 -0.00955798 0.00748311
-0.0107987 -0.00715104 0.00751522
-0.0172778 -0.012011 0.00300851
-0.0185794 -0.0117992 0.00609455
-0.0198125 -0.0114086 0.0089079
-0.0176583 -0.00913754 0.00911711
-0.0135164 -0.00713307 0.0100414
-0.0212995 -0.0115365 0.0109171
-0.0195814 -0.00922603 0.0114321
-0.011323 -0.00221107 -0.00964664
-0.0185131 -0.00611986 -0.0115787
-0.0113972 -0.0024406 0.00964807
-0.0185233 -0.00619911 0.0117807
-0.0106802 0.0025149 -0.00956094
-0.0173095 -0.00321865 -0.0118959
-0.0169224 0.000131217 -0.0119779
-0.0168977 0.00333919 -0.0120336
-0.011009 0.00228232 0.00976916
-0.0173658 -0.00322313 0.011964
-0.0170804 -8.31775e-05 0.0118711
-0.0170147 0.00306895 0.0120424
-0.0128625 0.00739951 -0.00976425
-0.0103826 0.00731568 -0.00722021
-0.0176262 0.00666771 -0.011783
-0.0103658 0.00719903 0.00753795
-0.0131497 0.00722313 0.0100858
-0.0177452 0.00629734 0.0119751
-0.0143976 0.00951504 -0.00719858
-0.0189981 0.00979073 -0.0110772
-0.0210375 0.0120553 -0.0103251
-0.0112839 0.00944933 -0.00206331
-0.0170468 0.00948336 -0.00880296
-0.0196006 0.0117071 -0.00837671
-0.0184418 0.0117319 -0.00582932
-0.0174415 0.0116915 -0.00301824
-0.0109535 0.00950585 0.00247033
-0.0164316 0.0118278 0.000136128
-0.0142413 0.00950465 0.00746506
-0.0172194 0.00921149 0.00931185
-0.0169037 0.011993 0.00319742
-0.0182213 0.0117547 0.00626565
-0.0195616 0.0114592 0.00903205
-0.0192605 0.00934449 0.0116027
-0.0211188 0.0116484 0.0109921
-0.0246516 -0.0125242 -0.0100736
-0.0250523 -0.010303 -0.0126593
-0.0289636 -0.0114087 -0.0113174
-0.0296873 -0.0113634 -0.00925343
-0.0241696 -0.0139811 -0.00386209
-0.0244816 -0.0103754 -0.0102368
-0.0242407 -0.00701869 -0.0103398
-0.0309172 -0.0115991 -0.0065391
-0.0324611 -0.00635815 -0.00951232
-0.0242365 -0.0143454 0.00335638
-0.0241801 -0.00700017 -0.00671058
-0.0243104 -0.0068792 0.00682
-0.0315442 -0.0118264 -0.00343774
-0.0323491 -0.0118723 3.30956e-05
-0.0317431 -0.0122893 0.00336022
-0.0333402 -0.00634761 -0.00646259
-0.0340263 -0.00644504 0.00680303
-0.0420669 -0.0057302 0.000202933
-0.0420679 -0.00557145 0.00284584
-0.0252568 -0.0127577 0.010178
-0.0252057 -0.0104574 0.0105545
-0.024611 -0.00692219 0.0106569
-0.0321602 -0.0115824 0.0065499
-0.033147 -0.00652042 0.00984424
-0.0252716 -0.0104163 0.0131328
-0.0303095 -0.0114518 0.00907986
-0.0292205 -0.0116393 0.0110935
-0.0244481 -0.00386002 -0.0137107
-0.0303087 -0.00918967 -0.0116399
-0.0312686 -0.0090967 -0.00936353
-0.0310992 -0.00648501 -0.0119113
-0.0320664 -0.00352037 -0.0121842
-0.0243202 -0.00375886 0.0141303
-0.0320131 -0.00924188 0.00940933
-0.0306686 -0.00939305 0.0115603
-0.0311715 -0.00669958 0.0120536
-0.0318695 -0.00367167 0.0125844
-0.0245967 0.00380111 -0.014147
-0.024101 0.00709518 -0.00643313
-0.0325499 -0.000197772 -0.0122507
-0.0337911 0.00665998 -0.00616514
-0.0418724 0.000147919 -0.00600324
-0.0417702 0.00261374 -0.0057792
-0.0239748 0.00373215 0.0143232
-0.0242537 0.00682157 0.00671331
-0.0240689 0.00706193 0.010605
-0.0322163 -0.000402581 0.012823
-0.0339626 0.00659933 0.00630567
-0.0332176 0.0065599 0.00974866
-0.0422234 -6.01341e-05 0.00609162
-0.0419337 -0.00036738 0.00828403
-0.0425065 0.00233533 0.00613412
-0.0416783 0.00210336 0.00835113
-0.0248389 0.0109946 -0.0129217
-0.0245446 0.0110862 -0.0102479
-0.0240933 0.0109701 -0.00673451
-0.0323241 0.00353474 -0.0118714
-0.0324375 0.00671089 -0.0117859
-0.0306345 0.00982141 -0.0113093
-0.0318965 0.00965454 -0.00899504
-0.0329161 0.00980783 -0.00612389
-0.0412993 0.00525168 -0.00535697
-0.0251461 0.0103576 0.010735
-0.0249654 0.010503 0.0134558
-0.03198 0.00304591 0.0126859
-0.0318 0.00630555 0.0122688
-0.0320637 0.00954456 0.00948842
-0.0305511 0.00941582 0.0117682
-0.0407906 0.00483235 0.00802847
-0.0247161 0.013347 -0.00982911
-0.0287729 0.012182 -0.0106297
-0.0296041 0.0118219 -0.00867691
-0.0238998 0.01421 -0.00338184
-0.0310411 0.0121338 -0.00628539
-0.0239046 0.0141992 0.00371819
-0.0311666 0.0124431 -0.00315904
-0.0314726 0.0127764 0.000188111
-0.0316983 0.012158 0.00358484
-0.0410234 0.00579147 4.35791e-05
-0.040149 0.00793198 8.35341e-05
-0.0251232 0.0128368 0.0103964
-0.0320604 0.0116143 0.00670435
-0.0301609 0.0114722 0.00918373
-0.0288628 0.0117148 0.0111421
-0.0350791 -0.0105009 -0.00808797
-0.0359833 -0.00790365 -0.0110153
-0.0395949 -0.00621072 -0.0085749
-0.0417297 -0.00477272 -0.00820199
-0.0386634 -0.0104728 -0.00237792
-0.038233 -0.00792016 -0.00841128
-0.0395601 -0.00530594 -0.00830135
-0.0441245 -0.00766115 -0.00533226
-0.0454481 -0.00757455 -0.00372015
-0.0451095 -0.00788518 -0.00219924
-0.0454462 -0.00573405 -0.00567385
-0.0462498 -0.00547207 -0.00377372
-0.0464599 -0.00582145 -0.00184452
-0.0466138 -0.00345993 -0.00364855
-0.0470376 -0.00364946 -0.00173813
-0.0387688 -0.0103392 0.00280617
-0.0408004 -0.0053092 -0.00548932
-0.045389 -0.0075901 6.60177e-05
-0.0467351 -0.00585479 9.42286e-06
-0.0473522 -0.0041338 -1.08946e-05
-0.0472652 -0.00432665 0.00149529
-0.0354579 -0.0104268 0.00788196
-0.0385985 -0.00795491 0.0082908
-0.0399388 -0.00549119 0.00819494
-0.0450422 -0.00803513 0.00222527
-0.0455909 -0.00749735 0.00361713
-0.044247 -0.00766834 0.00512272
-0.0465237 -0.00591752 0.00177608
-0.0464156 -0.00541419 0.00362087
-0.0455677 -0.00574443 0.00547156
-0.0468937 -0.00341145 0.00344177
-0.036211 -0.00808137 0.0108275
-0.0398195 -0.00628083 0.00832775
-0.0419207 -0.00484954 0.00795613
-0.0387029 -0.00229025 -0.0110975
-0.0445661 -0.00331513 -0.00770939
-0.0461732 -0.00329975 -0.00589219
-0.0465296 -0.00155582 -0.00571381
-0.0384277 -0.00253908 0.0109846
-0.0463286 -0.00337909 0.00555535
-0.044673 -0.00344709 0.0073984
-0.0467097 -0.00164754 0.00528622
-0.0393289 0.00293482 -0.0105342
-0.0451215 -0.00118446 -0.00821685
-0.0458468 -0.000216454 -0.00795855
-0.0468508 -9.99817e-05 -0.00617042
-0.0471651 0.000229698 -0.00434785
-0.0457702 0.000728558 -0.00820823
-0.046734 0.00139586 -0.00653127
-0.0471712 0.00159317 -0.00484715
-0.0384898 0.00250706 0.0103979
-0.0452525 -0.00119244 0.00773101
-0.0467715 1.30585e-05 0.00531155
-0.0458094 -0.000389303 0.00754039
-0.0469959 0.00103273 0.00565327
-0.0457659 0.000322224 0.00775444
-0.0366994 0.00747052 -0.0104544
-0.0387043 0.00745522 -0.00802779
-0.0398999 0.00767983 -0.00521313
-0.0444526 0.00315353 -0.00770927
-0.0459839 0.00330952 -0.00600866
-0.0465969 0.00333237 -0.00416594
-0.0388946 0.00739828 0.00806833
-0.036486 0.00719283 0.010554
-0.0463494 0.00276585 0.00528444
-0.0445308 0.00262803 0.00725066
-0.0348598 0.009746 -0.00779287
-0.0420314 0.00462119 -0.00826739
-0.0398594 0.00599589 -0.00872166
-0.037778 0.0102272 -0.00228569
-0.0453489 0.00555903 -0.00577076
-0.0461092 0.00538985 -0.00398194
-0.0464348 0.00520181 -0.00217359
-0.0439173 0.00757222 -0.00559072
-0.0450869 0.00774637 -0.0037911
-0.0450671 0.00757612 -0.00233242
-0.0379342 0.0105885 0.00240351
-0.0458962 0.00494775 1.8351e-05
-0.0450159 0.00717327 6.80381e-05
-0.0351224 0.00968791 0.00791686
-0.0465209 0.00472938 0.00204614
-0.0462077 0.00482141 0.00393157
-0.0456736 0.00516567 0.00554938
-0.0452721 0.00719066 0.00247023
-0.0454967 0.0072053 0.00372959
-0.0442772 0.00719399 0.00543647
-0.0421172 0.00410937 0.00804406
-0.0398898 0.00561994 0.00858958
-0.05 0 0
-0.05 0 0
-0.05 0 0
-0.05 0 0
-0.05 0 0
-0.05 0 0
-0.05 0 0
-0.05 0 0
-0.05 0 0
-0.05 0 0
-0.05 0 0
-0.05 0 0
-0.05 0 0
-0.05 0 0
-0.05 0 0
-0.05 0 0
-0.05 0 0
-0.05 0 0
-0.05 0 0
-0.05 0 0
-0.05 0 0
-0.05 0 0
-0.05 0 0
-0.05 0 0
-0.05 0 0
-0.05 0 0
-0.05 0 0
-0.05 0 0
-0.05 0 0
-0.05 0 0
-0.05 0 0
-0.05 0 0
-0.05 0 0
-0.05 0 0
-0.05 0 0
-0.05 0 0
-0.05 0 0
-0.05 0 0
-0.05 0 0
-0.05 0 0
-0.05 0 0
-0.05 0 0
-0.05 0 0
-0.05 0 0
-0.05 0 0
-0.05 0 0
-0.05 0 0
-0.05 0 0
-0.05 0 0
-0.05 0 0
-0.05 0 0
-0.05 0 0
-0.05 0 0
-0.05 0 0
-0.05 0 0
-0.05 0 0
-0.0400106 0.00847265 -0.00820381
-0.0430615 0.00342264 -0.00688095
-0.0215318 -0.0121703 0.00843196
-0.0462503 0.00652479 -0.00328121
-0.05 0 0
-0.0467483 0.00469462 -0.00480964
0 0 0
-0.05 0 0
0 0 0
-0.0147691 0.0110083 -0.00172787
-0.05 0 0
-0.0460908 -0.000367393 0.00469544
-0.0184221 0.0111238 -0.00861919
-0.0214397 0.0112178 -0.0113492
-0.05 0 0
-0.0428268 -0.00248521 0.00900504
-0.0479974 -0.00138855 0.00450561
-0.00954854 -0.00806433 -0.00743035
-0.00649664 -0.00326583 -0.00623738
-0.0193009 -0.00237806 -0.0126775
-0.0327193 -0.00790727 -0.0114703
-0.0217293 -0.0103924 -0.0114257
-0.018562 -0.0105695 -0.00899684
-0.00631754 0.00830508 0.00146554
-0.00198914 -0.00328048 -0.00302523
-0.0168279 -0.00748492 -0.0108658
-0.0169166 -0.00916433 -0.00915665
0 0 0
-0.0480561 -0.000821086 0.00470881
-0.05 0 0
-0.0469782 -0.00104841 0.00636799
-0.0081493 0.00468774 -0.00814764
0 0 0
-0.00287264 -0.00446746 -0.00412476
-0.00333871 -0.0061656 -0.00269178
-0.0023723 -0.00462019 -0.00302123
-0.0211489 0.0124004 -0.0080096
-0.0204795 0.0108908 -0.0100301
-0.00341141 -0.00221196 -0.00428129
-0.05 0 0
-0.00483814 -0.00506199 -0.00112908
0 0 0
-0.00280627 0.00116486 -0.00598778
0 0 0
-0.0335862 0.00815583 -0.0110863
-0.0415298 0.00509924 0.00383804
-0.019864 -0.0127417 0.00414602
-0.0411018 0.00455117 0.00904443
-0.0312571 0.0109266 0.00943917
-0.028262 0.0107658 0.0120011
-0.0196197 0.0109327 -0.00827126
-0.00690684 -0.0018198 -0.00850467
-0.0026148 -0.00192466 -0.0040113
-0.00838705 0.00462494 0.00834438
0 0 0
-0.00318578 -0.00606149 0.00258108
0 0 0
-0.00222423 -0.00455298 0.00291002
-0.05 0 0
-0.00775511 0.00620294 -0.00700512
-0.00949365 0.00799603 -0.0071586
-0.00619421 0.00311956 -0.00606479
-0.00277784 0.00429643 -0.0039901
-0.00321459 0.00598043 -0.00258214
-0.0022693 0.00440443 -0.00290138
0 0 0
0 0 0
-0.00189342 0.00212058 -0.00385029
-0.00190302 0.00304573 -0.00296137
-0.00608106 0.00506312 -0.00644485
0 0 0
0 0 0
-0.0018717 -0.000736722 -0.00440387
0 0 0
-0.00180277 -2.94645e-05 -0.00448184
-0.00178491 0.000446929 -0.00430578
-0.00275851 -0.00024492 -0.00604942
0 0 0
-0.00305228 0.00107952 0.00636547
-0.0211814 -0.0118461 -0.00836264
-0.019897 -0.0104279 -0.00844531
-0.020815 -0.0102432 -0.010079
-0.00628089 0.00309474 0.00603419
-0.00769846 0.00617132 0.0071271
-0.00948785 0.00791855 0.00722481
-0.0343288 0.00397745 0.0118218
0 0 0
-0.0020702 0.00428186 -0.00208024
0 0 0
-0.00216482 0.00483357 -0.00129951
-0.00316098 0.00629497 -0.0018131
-0.0484207 0.000446665 0.00366703
0 0 0
-0.00326081 -0.00642497 -0.00191396
-0.0118337 0.00821952 0.00208752
-0.00647123 0.00233856 0.00865365
-0.0019042 0.00127535 0.00444384
-0.00197924 0.000838802 0.00471796
-0.00651473 -0.00858163 -0.00113499
-0.00201442 -0.00468015 -0.000665671
-0.0068634 -0.00213049 0.00857004
0 0 0
-0.001837 0.00432487 0.000957936
-0.00293609 0.00595775 0.00206727
0 0 0
-0.00194504 0.00448039 0.00153597
-0.00154362 0.00320358 0.00129739
-0.00188764 0.0040167 0.00220682
-0.00905132 -0.00820465 -0.0015755
-0.0150933 -0.0110182 -0.00207982
-0.00516733 -0.00686656 -0.0012046
-0.00628441 0.00252159 -0.0082499
-0.00176099 0.00133748 -0.00409867
-0.00181128 0.000922901 -0.00436868
-0.00610293 0.00498162 0.0066537
-0.00199404 0.0020712 0.0041159
-0.00506082 0.00488966 0.00525275
-0.00181281 0.00299815 0.00300643
0 0 0
-0.00266025 0.00420283 0.00393413
-0.00303998 0.00580052 0.00260178
-0.00212304 0.00427542 0.00291326
-0.00187587 -0.00329523 0.00293618
-0.00247278 -0.00207981 0.00395864
-0.00275155 -0.00444507 0.00394986
-0.0064626 -0.00331602 0.00607807
-0.00957137 -0.008139 0.00724861
-0.0478379 0.00416748 0.00270005
-0.05 0 0
-0.00334773 0.00448719 0.00151819
0 0 0
-0.00319059 0.00323564 0.00304151
-0.0433655 0.00496218 0.00741489
-0.0478358 0.00316429 0.00378181
-0.00894531 -0.00447283 -0.00844508
-0.00666493 -0.00489477 -0.00674684
-0.0124562 -0.00767689 -0.00856279
-0.00804922 -0.00622969 -0.00728228
-0.0315911 -0.0110499 0.00939004
-0.028456 -0.0105968 0.0117649
-0.0414568 0.000129759 -0.00742072
-0.00195238 -0.00100272 0.0044971
-0.0015978 -0.000371827 0.0033898
0 0 0
-0.0468638 -0.000989884 -0.00671654
-0.05 0 0
-0.00846646 -0.00121876 -0.00858022
-0.00352845 -0.000934908 -0.00566168
-0.00146114 -0.00015865 -0.00329218
-0.00993465 0.0078996 -0.0046357
-0.0197251 0.012592 -0.0042612
-0.0153808 -0.00400249 0.011193
-0.00529786 -0.00216163 0.00691726
0 0 0
-0.00175838 -0.00347129 -0.00103187
-0.00213035 -0.00439263 -0.00216312
-0.00221848 -0.00492997 -0.00135862
-0.05 0 0
-0.05 0 0
-0.0465909 0.00643859 -0.00234522
-0.00639517 -0.00838752 0.00143211
-0.00188629 -0.0042449 0.000153867
-0.0186175 -0.0108322 0.0091461
-0.0209415 -0.0104381 0.0104526
-0.0219194 -0.010602 0.0117768
-0.00195152 -0.00416753 0.00217888
0 0 0
-0.0169152 -0.00941048 0.00934394
-0.0169283 -0.00765543 0.0110494
-0.00941619 -0.00320796 0.00825846
-0.00892549 -0.00150345 0.00839024
-0.0193612 -0.00232032 0.0127501
-0.00991988 -0.00480408 0.00804192
-0.0153968 -0.00761976 0.00947553
-0.00538025 -0.00500369 0.00520179
-0.0448036 0.005274 -0.00317932
-0.046594 0.00610756 0.00314961
-0.05 0 0
-0.0475182 0.00456938 0.00355414
-0.0335384 -0.00786174 -0.00991737
-0.0339436 -0.00418359 -0.0117452
0 0 0
-0.00291661 -0.000534619 0.00624937
-0.00193938 0.000290871 0.00462166
-0.00190854 -0.000245318 0.0046482
-0.0216657 0.0107312 0.0119964
-0.0184164 0.0109043 0.00921667
0 0 0
-0.00186652 -0.00434512 0.000936317
-0.00298202 -0.00601368 0.00202823
-0.00196246 -0.00447956 0.00149897
-0.0281304 -0.0103855 -0.011807
-0.0311124 -0.010978 -0.00966327
-0.0324319 -0.00962656 -0.00974054
-0.0406541 0.00687906 -0.00353718
-0.0410995 0.00525515 -0.00361753
-0.0398291 0.00871453 9.98549e-05
-0.029137 -0.0123797 -0.00475427
-0.00863913 -0.00820994 0.00173129
-0.00882317 -0.00823798 7.63872e-05
-0.00489394 -0.00668696 0.00145014
-0.0148506 -0.0111528 0.00183216
-0.0135542 -0.00392385 0.00981059
-0.0138538 -0.00776868 0.00777949
-0.0201442 -0.0106152 0.00862886
-0.00962626 -0.00644704 0.00651614
-0.0119435 -0.00399825 0.00633263
-0.0130379 -0.005815 0.00803602
-0.0123065 -0.00404013 0.00816582
-0.00445853 -0.0013409 0.00520661
-0.0032111 -0.00315273 0.0029338
0 0 0
-0.0119689 -0.00828094 0.00185839
-0.00336602 -0.00449108 0.00135431
-0.0127875 -0.0098126 0.00177018
-0.00387858 -0.00402147 0.00389673
-0.00331903 -0.00440608 0.00254707
0 0 0