# vtk DataFile Version 3.0
vtk output at time 0.8
ASCII
DATASET UNSTRUCTURED_GRID
POINTS 1331 float
0 0 0 0 0 0.05 0 0 0.1 
0 0 0.15 0 0 0.2 0 0.05 0 
0 0.05 0.05 0 0.05 0.1 0 0.05 0.15 
0 0.05 0.2 0 0.1 0 0 0.1 0.05 
0 0.1 0.1 0 0.1 0.15 0 0.1 0.2 
0 0.15 0 0 0.15 0.05 0 0.15 0.1 
0 0.15 0.15 0 0.15 0.2 0 0.2 0 
0 0.2 0.05 0 0.2 0.1 0 0.2 0.15 
0 0.2 0.2 0.0370894 -0.00803672 -0.00802759 0.0398163 -0.00786141 0.0459801 
0.0415641 -0.00824706 0.100091 0.0403513 -0.00813907 0.154039 0.0368583 -0.00815725 0.208098 
0.0404315 0.0462644 -0.00832269 0.0405168 0.0461363 0.208316 0.0412086 0.100321 -0.00809162 
0.0408889 0.100065 0.208013 0.041305 0.154181 -0.00820045 0.0411222 0.153985 0.2084 
0.0369415 0.208325 -0.00781458 0.0398816 0.207918 0.046186 0.041725 0.208191 0.100178 
0.0405223 0.208123 0.154036 0.0368089 0.208258 0.208079 0.0799158 -0.0103757 -0.00996372 
0.0803515 -0.0114264 0.0441926 0.0808489 -0.0116463 0.0997934 0.0790336 -0.0115307 0.155555 
0.0797655 -0.0104921 0.210275 0.0796814 0.0440145 -0.0109273 0.0795592 0.0441432 0.211489 
0.0805101 0.0999072 -0.0116682 0.0810834 0.0999694 0.211866 0.0796388 0.156203 -0.0118855 
0.0799536 0.155864 0.211881 0.0800175 0.211016 -0.0099504 0.0799302 0.211744 0.0445393 
0.081361 0.211761 0.100164 0.0793019 0.211435 0.155752 0.0799705 0.210615 0.210476 
0.123132 -0.00897695 -0.00850077 0.120089 -0.00897913 0.0458251 0.118315 -0.00860996 0.100269 
0.119728 -0.00869282 0.154179 0.12293 -0.00902763 0.208321 0.119889 0.0458377 -0.00955916 
0.119965 0.0456854 0.209517 0.118201 0.100178 -0.00912258 0.118813 0.0999966 0.209056 
0.118584 0.154229 -0.0089112 0.11936 0.153986 0.208674 0.122878 0.208413 -0.00833325 
0.120802 0.208489 0.0459911 0.119115 0.20871 0.100122 0.120288 0.208817 0.154082 
0.123013 0.208377 0.208289 0.16 0 0 0.16 0 0.05 
0.16 0 0.1 0.16 0 0.15 0.16 0 0.2 
0.16 0.05 0 0.16 0.05 0.05 0.16 0.05 0.1 
0.16 0.05 0.15 0.16 0.05 0.2 0.16 0.1 0 
0.16 0.1 0.05 0.16 0.1 0.1 0.16 0.1 0.15 
0.16 0.1 0.2 0.16 0.15 0 0.16 0.15 0.05 
0.16 0.15 0.1 0.16 0.15 0.15 0.16 0.15 0.2 
0.16 0.2 0 0.16 0.2 0.05 0.16 0.2 0.1 
0.16 0.2 0.15 0.16 0.2 0.2 0 0 0.025 
0 0.025 0 0.0174609 -0.00492344 -0.0068612 0.0206265 -0.00616779 0.0209384 
0 0 0.075 0 0.025 0.025 0 0.025 0.05 
0 0.025 0.075 0.0214609 -0.00625329 0.0472852 0 0 0.125 
0 0.025 0.1 0.0212564 -0.00641381 0.0734709 0.0215474 -0.00609862 0.100146 
0.0214252 -0.00621291 0.126755 0 0 0.175 0 0.025 0.125 
0 0.025 0.15 0 0.025 0.175 0.0216379 -0.00614541 0.152749 
0 0.025 0.2 0.0207469 -0.00614815 0.178971 0.0173536 -0.00495396 0.206808 
0 0.05 0.025 0 0.075 0 0 0.075 0.025 
0.0189906 0.021415 -0.00628133 0.0216797 0.0205772 0.0209674 0.0205202 0.0477146 -0.00583609 
0.0217179 0.0748064 -0.00631287 0 0.05 0.075 0 0.075 0.05 
0.021951 0.0207381 0.0476372 0.021816 0.0476925 0.0208635 0.0226593 0.0743783 0.0204718 
0.0418795 0.0190891 0.0459291 0.0428113 0.0187376 0.072943 0.0420419 0.0460935 0.0189135 
0.0434103 0.0731351 0.0183827 0 0.05 0.125 0 0.075 0.075 
0 0.075 0.1 0 0.075 0.125 0.022243 0.0205292 0.0738172 
0.0225524 0.0206467 0.100129 0.0225645 0.0207423 0.126379 0.0431396 0.0185821 0.0998522 
0.0437488 0.0183778 0.127328 0.0442177 0.0730836 0.0452079 0 0.05 0.175 
0 0.075 0.15 0.0223781 0.0208133 0.152523 0.0219997 0.0475669 0.179096 
0.0224971 0.0741326 0.179515 0.0431368 0.0186806 0.154274 0.0423638 0.0459618 0.181161 
0.0430101 0.0729375 0.181459 0 0.075 0.175 0 0.075 0.2 
0.0218342 0.0205675 0.17901 0.0189719 0.0213912 0.206244 0.0206603 0.0476016 0.205843 
0.0216319 0.0745813 0.206374 0 0.1 0.025 0 0.125 0 
0.0217705 0.100471 -0.00609168 0 0.1 0.075 0 0.125 0.025 
0 0.125 0.05 0 0.125 0.075 0.0226546 0.100415 0.0208535 
0.022812 0.126431 0.0207807 0.0441328 0.100056 0.0183025 0.0440524 0.127488 0.0184675 
0 0.1 0.125 0 0.125 0.1 0.0434898 0.0452271 0.0999165 
0.044162 0.0452508 0.127281 0.0442075 0.100068 0.0451513 0.0433646 0.100013 0.154988 
0.0444401 0.12741 0.0453373 0.0437668 0.127231 0.15476 0.0435836 0.154815 0.100085 
0.0440428 0.154659 0.127426 0.0802217 0.100002 0.100048 0 0.1 0.175 
0 0.125 0.125 0 0.125 0.15 0 0.125 0.175 
0.0224389 0.100229 0.179398 0.0226068 0.126315 0.179477 0.0438355 0.0453969 0.154327 
0.0432119 0.0999388 0.181621 0.0432605 0.127222 0.18152 0.0440429 0.154675 0.154426 
0 0.125 0.2 0.0216029 0.100283 0.20634 0 0.15 0.025 
0 0.175 0 0 0.175 0.025 0.0214883 0.12619 -0.00613214 
0.0214142 0.152597 -0.00564564 0.0192301 0.178509 -0.00606645 0.0217434 0.179288 0.0210611 
0 0.15 0.075 0 0.175 0.05 0.0224754 0.152475 0.0209994 
0.022013 0.179188 0.0477221 0.0433585 0.15438 0.0188314 0.0424314 0.181156 0.0460709 
0.0430577 0.181324 0.0730642 0 0.15 0.125 0 0.175 0.075 
0 0.175 0.1 0 0.175 0.125 0.022319 0.179405 0.0738707 
0.0226093 0.179285 0.100156 0.0225862 0.179288 0.126405 0.0440045 0.154374 0.0455028 
0.0433847 0.181426 0.100043 0.043822 0.181643 0.127435 0 0.15 0.175 
0 0.175 0.15 0.0223638 0.152385 0.179309 0.0224115 0.179084 0.152536 
0.0430054 0.154178 0.181478 0.0434275 0.181438 0.154371 0 0.175 0.175 
0 0.175 0.2 0.0212859 0.126064 0.206452 0.021264 0.152489 0.205943 
0.0218909 0.179238 0.179047 0.0190922 0.178449 0.206201 0 0.2 0.025 
0.0175227 0.204866 -0.00670164 0.0206685 0.20609 0.021092 0 0.2 0.075 
0.0214975 0.206192 0.047363 0 0.2 0.125 0.0213173 0.206322 0.0735616 
0.0216095 0.206025 0.100187 0.0214509 0.206196 0.126785 0 0.2 0.175 
0.0217123 0.206002 0.152799 0.0208266 0.205977 0.178953 0.017389 0.204809 0.206786 
0.0386554 -0.00802431 0.0186833 0.0394022 0.0191045 -0.00843898 0.0584085 -0.00949977 -0.0089663 
0.0596002 0.0174201 -0.00937379 0.0407902 -0.00811624 0.0730611 0.0411777 0.0191172 0.0186777 
0.0593065 -0.00934546 0.0177659 0.0602432 -0.0095785 0.0448004 0.0607625 -0.00976484 0.0721054 
0.0608182 0.017533 0.0176199 0.0410095 -0.00814063 0.127053 0.0614494 -0.00993922 0.0998425 
0.0386997 -0.00815873 0.181374 0.0413539 0.0189737 0.181375 0.061089 -0.0100971 0.127502 
0.0599915 -0.00991524 0.15511 0.0592475 -0.00955116 0.182507 0.0608188 0.0174123 0.182649 
0.0393418 0.0189827 0.208524 0.0582144 -0.0096274 0.209256 0.0594744 0.017349 0.209636 
0.0409143 0.0730856 -0.00824101 0.0601868 0.0448611 -0.00969537 0.0408781 0.0729584 0.208235 
0.0601812 0.0448737 0.209907 0.0413562 0.127116 -0.00819372 0.0611072 0.0722695 -0.0100139 
0.0613422 0.10008 -0.0101212 0.0613241 0.127733 -0.0101843 0.0411394 0.126923 0.208344 
0.0611021 0.0723334 0.210074 0.0612984 0.0999244 0.209988 0.0613124 0.127525 0.210144 
0.0397839 0.181344 -0.00826529 0.0416512 0.181229 0.0188886 0.0607114 0.155595 -0.00993899 
0.0416468 0.181117 0.181421 0.0395641 0.181148 0.208584 0.0607018 0.155246 0.210085 
0.0386305 0.208194 0.0189327 0.0598315 0.183247 -0.00933289 0.0583636 0.210185 -0.00871134 
0.0409227 0.208083 0.0732393 0.0612381 0.182962 0.0176417 0.0593845 0.209884 0.0179861 
0.0601801 0.209886 0.045126 0.0609722 0.209848 0.0724685 0.04115 0.208165 0.12709 
0.0617694 0.209969 0.100093 0.0387373 0.208172 0.181369 0.0610715 0.182716 0.182823 
0.0613352 0.210133 0.127654 0.0602462 0.209926 0.155246 0.0593788 0.20966 0.18262 
0.0596481 0.182827 0.209809 0.0583015 0.209796 0.209335 0.080288 -0.0103686 0.0167549 
0.079971 0.0165126 -0.0104452 0.101557 -0.00956056 -0.00947066 0.101095 -0.00950903 0.0173296 
0.0806592 -0.0115204 0.0718404 0.0804204 0.0164675 0.0166054 0.0805855 0.0442162 0.0164851 
0.100257 -0.00969833 0.0446214 0.0991302 0.044755 0.0170981 0.0805012 -0.0118026 0.127729 
0.0806092 0.0442191 0.0444674 0.0805754 0.0443296 0.155649 0.0997877 -0.00988764 0.0721784 
0.0991676 -0.00990616 0.100053 0.0996044 -0.0103351 0.127804 0.0985083 0.04477 0.0446514 
0.0980341 0.0446864 0.155695 0.116626 0.0452432 0.100198 0.116585 0.0453511 0.127424 
0.0797426 -0.010495 0.183328 0.0797965 0.0164538 0.183681 0.0802905 0.0443511 0.18379 
0.0991452 -0.00965093 0.15542 0.0986175 0.0446192 0.183237 0.0798003 0.0164598 0.210848 
0.10058 -0.00955785 0.182545 0.101344 -0.00973905 0.209309 0.0804084 0.0718273 -0.011342 
0.100574 0.0173558 -0.00974034 0.0999548 0.017433 0.0172211 0.100061 0.0446209 -0.0099522 
0.0993913 0.0721018 -0.0101542 0.0805814 0.0719361 0.211689 0.0993813 0.0173216 0.182851 
0.100306 0.0171914 0.209707 0.100051 0.0444429 0.210129 0.0996142 0.0719884 0.210564 
0.0801712 0.128107 -0.0116979 0.0806716 0.155884 0.0446944 0.0989812 0.0998424 -0.0102298 
0.0981669 0.155546 0.0449167 0.116759 0.100144 0.0449784 0.116832 0.127207 0.0451603 
0.0807853 0.128046 0.211833 0.0805545 0.155676 0.155541 0.0806334 0.155809 0.183745 
0.0993584 0.0996976 0.210757 0.0980182 0.155541 0.155206 0.0986167 0.155519 0.183066 
0.116421 0.0999913 0.155108 0.116566 0.0997343 0.18201 0.116212 0.127001 0.155155 
0.116811 0.126817 0.182078 0.0800338 0.18404 -0.0106829 0.0802515 0.184136 0.016568 
0.080566 0.184024 0.044466 0.0990971 0.127944 -0.00991957 0.0988878 0.155561 -0.00982627 
0.100256 0.18315 -0.00944488 0.0993857 0.183034 0.0175238 0.0987163 0.183177 0.0449451 
0.117186 0.154414 0.0455491 0.079712 0.183499 0.18383 0.0799756 0.183618 0.211101 
0.0994835 0.127593 0.210632 0.0995258 0.155299 0.210258 0.0992749 0.182977 0.182846 
0.100338 0.182864 0.209801 0.117548 0.154115 0.181743 0.0801693 0.211061 0.0169236 
0.101659 0.210183 -0.00892188 0.101099 0.209905 0.0177966 0.0807986 0.211741 0.0722188 
0.100073 0.210137 0.0448118 0.0807049 0.211733 0.128007 0.100039 0.210396 0.0723944 
0.0998333 0.210651 0.100155 0.099636 0.21018 0.127963 0.117365 0.154823 0.100045 
0.117967 0.181656 0.100074 0.0797745 0.210597 0.183498 0.0991822 0.209689 0.155518 
0.100622 0.209625 0.182585 0.101564 0.209842 0.209303 0.12163 -0.00892162 0.0182302 
0.120968 0.0183328 -0.00926837 0.142955 -0.00527168 -0.00739534 0.141345 0.0209444 -0.00697657 
0.11908 -0.00886797 0.0730387 0.119335 0.018325 0.0179238 0.118362 0.0455266 0.0180041 
0.139567 -0.00647447 0.0204968 0.138562 -0.00644984 0.0468877 0.138877 -0.00674446 0.0731723 
0.138551 0.0201667 0.0202163 0.137991 0.0203592 0.0468268 0.137837 0.0200306 0.0734629 
[...]
POINT_DATA 1331
VECTORS displacement float
0 0 0
0 0 0
0 0 0
0 0 0
0 0 0
0 0 0
0 0 0
0 0 0
0 0 0
0 0 0
0 0 0
0 0 0
0 0 0
0 0 0
0 0 0
0 0 0
0 0 0
0 0 0
0 0 0
0 0 0
0 0 0
0 0 0
0 0 0
0 0 0
0 0 0
-0.0129106 -0.00803672 -0.00802759
-0.0101837 -0.00786141 -0.00401995
-0.00843593 -0.00824706 9.10206e-05
-0.00964874 -0.00813907 0.00403861
-0.0131417 -0.00815725 0.00809752
-0.00956849 -0.00373561 -0.00832269
-0.00948319 -0.00386372 0.0083159
-0.00879139 0.000321411 -0.00809162
-0.00911109 6.54476e-05 0.00801318
-0.00869499 0.00418084 -0.00820045
-0.00887781 0.00398471 0.00839973
-0.0130585 0.00832531 -0.00781458
-0.0101184 0.0079183 -0.00381401
-0.00827504 0.00819073 0.000178427
-0.0094777 0.0081234 0.004036
-0.0131911 0.00825814 0.00807894
-0.0200842 -0.0103757 -0.00996372
-0.0196485 -0.0114264 -0.00580739
-0.0191511 -0.0116463 -0.000206638
-0.0209664 -0.0115307 0.00555471
-0.0202345 -0.0104921 0.0102752
-0.0203186 -0.00598547 -0.0109273
-0.0204408 -0.00585681 0.011489
-0.0194899 -9.28494e-05 -0.0116682
-0.0189166 -3.0634e-05 0.0118659
-0.0203612 0.00620275 -0.0118855
-0.0200464 0.00586376 0.0118805
-0.0199825 0.0110159 -0.0099504
-0.0200698 0.0117439 -0.00546073
-0.018639 0.0117605 0.000164236
-0.0206981 0.0114345 0.00575201
-0.0200295 0.0106145 0.0104763
-0.0268683 -0.00897695 -0.00850077
-0.0299106 -0.00897913 -0.00417491
-0.0316855 -0.00860996 0.00026909
-0.0302718 -0.00869282 0.00417927
-0.0270701 -0.00902763 0.00832071
-0.0301106 -0.00416226 -0.00955916
-0.0300352 -0.00431455 0.00951734
-0.0317986 0.000178487 -0.00912258
-0.031187 -3.42364e-06 0.00905556
-0.0314156 0.00422946 -0.0089112
-0.0306403 0.00398585 0.00867432
-0.0271219 0.00841257 -0.00833325
-0.0291983 0.00848933 -0.00400889
-0.0308854 0.00871012 0.000122151
-0.029712 0.00881692 0.00408184
-0.0269872 0.00837694 0.00828914
-0.04 0 0
-0.04 0 0
-0.04 0 0
-0.04 0 0
-0.04 0 0
-0.04 0 0
-0.04 0 0
-0.04 0 0
-0.04 0 0
-0.04 0 0
-0.04 0 0
-0.04 0 0
-0.04 0 0
-0.04 0 0
-0.04 0 0
-0.04 0 0
-0.04 0 0
-0.04 0 0
-0.04 0 0
-0.04 0 0
-0.04 0 0
-0.04 0 0
-0.04 0 0
-0.04 0 0
-0.04 0 0
0 0 0
0 0 0
-0.00753907 -0.00492344 -0.0068612
-0.00437349 -0.00616779 -0.00406155
0 0 0
0 0 0
0 0 0
0 0 0
-0.00353912 -0.00625329 -0.00271477
0 0 0
0 0 0
-0.00374364 -0.00641381 -0.00152912
-0.00345262 -0.00609862 0.000146333
-0.00357485 -0.00621291 0.0017545
0 0 0
0 0 0
0 0 0
0 0 0
-0.00336206 -0.00614541 0.00274934
0 0 0
-0.00425311 -0.00614815 0.00397139
-0.00764635 -0.00495396 0.00680788
0 0 0
0 0 0
0 0 0
-0.00600941 -0.00358502 -0.00628133
-0.00332025 -0.00442278 -0.00403261
-0.0044798 -0.00228539 -0.00583609
-0.00328207 -0.000193555 -0.00631287
0 0 0
0 0 0
-0.00304905 -0.00426189 -0.00236283
-0.003184 -0.00230754 -0.0041365
-0.00234071 -0.00062173 -0.00452821
-0.00812055 -0.00591092 -0.00407094
-0.00718873 -0.00626237 -0.00205701
-0.00795813 -0.0039065 -0.00608653
-0.00658967 -0.00186494 -0.00661728
0 0 0
0 0 0
0 0 0
0 0 0
-0.002757 -0.00447081 -0.00118281
-0.00244763 -0.0043533 0.000129094
-0.00243549 -0.00425774 0.00137905
-0.00686038 -0.00641788 -0.000147844
-0.00625121 -0.00662221 0.00232788
-0.00578231 -0.00191636 -0.00479214
0 0 0
0 0 0
-0.0026219 -0.00418672 0.0025226
-0.00300029 -0.00243306 0.00409602
-0.00250287 -0.000867446 0.00451487
-0.00686323 -0.00631943 0.00427412
-0.00763624 -0.00403821 0.00616077
-0.00698986 -0.00206253 0.00645904
0 0 0
0 0 0
-0.00316583 -0.00443245 0.00401015
-0.00602815 -0.00360883 0.00624388
-0.00433974 -0.00239844 0.00584282
-0.00336809 -0.000418686 0.00637352
0 0 0
0 0 0
-0.00322947 0.000471001 -0.00609168
0 0 0
0 0 0
0 0 0
0 0 0
-0.0023454 0.000414629 -0.0041465
-0.00218804 0.00143054 -0.00421934
-0.00586719 5.59052e-05 -0.00669747
-0.00594764 0.00248843 -0.00653255
0 0 0
0 0 0
-0.00651019 -0.00477287 -8.34572e-05
-0.00583805 -0.00474918 0.00228136
-0.00579246 6.7637e-05 -0.00484871
-0.00663536 1.25354e-05 0.00498846
-0.00555991 0.00240995 -0.00466274
-0.00623316 0.00223071 0.00476012
-0.00641643 0.00481473 8.48254e-05
-0.00595718 0.00465873 0.00242583
-0.0197783 1.50671e-06 4.7955e-05
0 0 0
0 0 0
0 0 0
0 0 0
-0.0025611 0.000228955 0.00439757
-0.00239315 0.00131513 0.00447688
-0.00616447 -0.00460314 0.00432749
-0.00678811 -6.12313e-05 0.00662123
-0.00673946 0.00222195 0.00652034
-0.00595706 0.00467458 0.00442579
0 0 0
-0.00339707 0.000282878 0.00634025
0 0 0
0 0 0
0 0 0
-0.00351167 0.00118951 -0.00613214
-0.00358579 0.00259657 -0.00564564
-0.00576994 0.00350873 -0.00606645
-0.0032566 0.00428807 -0.00393893
0 0 0
0 0 0
-0.00252459 0.00247508 -0.00400061
-0.00298703 0.00418817 -0.00227792
-0.00664154 0.00437967 -0.00616857
-0.00756862 0.00615584 -0.00392906
-0.00694232 0.0063238 -0.00193576
0 0 0
0 0 0
0 0 0
0 0 0
-0.00268097 0.00440518 -0.00112931
-0.00239071 0.00428541 0.000156145
-0.00241381 0.00428778 0.00140495
-0.00599546 0.00437426 -0.00449722
-0.00661532 0.00642567 4.34176e-05
-0.00617797 0.00664348 0.00243462
0 0 0
0 0 0
-0.00263616 0.00238523 0.00430919
-0.00258853 0.00408352 0.00253557
-0.00699465 0.00417829 0.00647791
-0.00657255 0.00643774 0.00437129
0 0 0
0 0 0
-0.00371413 0.00106414 0.00645223
-0.00373603 0.00248891 0.00594263
-0.00310913 0.00423815 0.00404661
-0.00590784 0.00344921 0.00620076
0 0 0
-0.00747734 0.00486629 -0.00670164
-0.00433153 0.00609011 -0.00390803
0 0 0
-0.00350246 0.00619242 -0.00263696
0 0 0
-0.00368266 0.00632165 -0.00143843
-0.00339045 0.0060246 0.000187171
-0.00354914 0.00619648 0.0017845
0 0 0
-0.00328771 0.00600207 0.00279894
-0.0041734 0.00597715 0.00395288
-0.00761096 0.00480934 0.0067855
-0.0113446 -0.00802431 -0.00631666
-0.0105978 -0.00589553 -0.00843898
-0.0165915 -0.00949977 -0.0089663
-0.0153998 -0.00757991 -0.00937379
-0.00920976 -0.00811624 -0.00193889
-0.00882229 -0.00588284 -0.0063223
-0.0156935 -0.00934546 -0.00723408
-0.0147568 -0.0095785 -0.0051996
-0.0142375 -0.00976484 -0.00289457
-0.0141818 -0.007467 -0.00738015
-0.00899047 -0.00814063 0.00205269
-0.0135506 -0.00993922 -0.000157492
-0.0113003 -0.00815873 0.00637439
-0.00864605 -0.00602629 0.00637456
-0.013911 -0.0100971 0.00250182
-0.0150085 -0.00991524 0.00511006
-0.0157525 -0.00955116 0.00750715
-0.0141812 -0.0075877 0.00764873
-0.0106583 -0.00601732 0.00852391
-0.0167856 -0.0096274 0.00925646
-0.0155256 -0.00765099 0.00963626
-0.00908569 -0.00191436 -0.00824101
-0.0148132 -0.00513893 -0.00969537
-0.00912189 -0.00204157 0.00823547
-0.0148188 -0.00512629 0.0099065
-0.00864376 0.00211631 -0.00819372
-0.0138928 -0.0027305 -0.0100139
-0.0136578 8.03943e-05 -0.0101212
-0.013676 0.00273295 -0.0101843
-0.00886057 0.00192253 0.00834355
-0.0138979 -0.00266656 0.010074
-0.0137016 -7.55692e-05 0.00998756
-0.0136876 0.00252467 0.0101441
-0.0102161 0.00634367 -0.00826529
-0.00834878 0.00622893 -0.00611141
-0.0142886 0.00559497 -0.00993899
-0.00835323 0.00611743 0.00642087
-0.0104359 0.00614752 0.00858435
-0.0142982 0.00524637 0.010085
-0.0113695 0.0081938 -0.00606731
-0.0151685 0.00824697 -0.00933289
-0.0166364 0.0101849 -0.00871134
-0.00907726 0.00808304 -0.00176066
-0.0137619 0.00796193 -0.00735829
-0.0156155 0.0098841 -0.00701386
-0.0148199 0.00988622 -0.004874
-0.0140278 0.00984811 -0.00253147
-0.00885 0.00816477 0.00208985
-0.0132306 0.00996899 9.32943e-05
-0.0112627 0.00817234 0.00636932
-0.0139285 0.0077165 0.00782284
-0.0136648 0.0101329 0.00265398
-0.0147538 0.00992623 0.00524644
-0.0156212 0.00965974 0.00761989
-0.0153519 0.00782665 0.00980893
-0.0166985 0.00979604 0.00933508
-0.019712 -0.0103686 -0.00824514
-0.020029 -0.00848744 -0.0104452
-0.0234434 -0.00956056 -0.00947066
-0.0239052 -0.00950903 -0.00767044
-0.0193408 -0.0115204 -0.00315961
-0.0195796 -0.00853247 -0.00839461
-0.0194145 -0.00578376 -0.00851495
-0.0247431 -0.00969833 -0.00537857
-0.0258698 -0.00524504 -0.00790189
-0.0194988 -0.0118026 0.00272901
-0.0193908 -0.00578093 -0.00553264
-0.0194246 -0.00567037 0.00564907
-0.0252123 -0.00988764 -0.00282163
-0.0258324 -0.00990616 5.30274e-05
-0.0253956 -0.0103351 0.00280395
-0.0264917 -0.00523 -0.00534856
-0.0269659 -0.00531364 0.00569511
-0.0333743 -0.00475683 0.000198164
-0.0334146 -0.0046489 0.002424
-0.0202574 -0.010495 0.0083279
-0.0202035 -0.00854617 0.00868124
-0.0197095 -0.00564894 0.00878955
-0.0258548 -0.00965093 0.00542007
-0.0263825 -0.00538081 0.00823697
-0.0201997 -0.00854015 0.0108483
-0.0244204 -0.00955785 0.00754472
-0.0236556 -0.00973905 0.00930888
-0.0195916 -0.00317271 -0.011342
-0.0244259 -0.00764424 -0.00974034
-0.0250452 -0.00756695 -0.00777895
-0.0249386 -0.00537906 -0.0099522
-0.0256087 -0.00289821 -0.0101542
-0.0194187 -0.00306392 0.0116889
-0.0256187 -0.00767842 0.00785135
-0.0246945 -0.00780863 0.00970726
-0.0249486 -0.00555713 0.0101287
-0.0253858 -0.00301158 0.0105641
-0.0198288 0.0031066 -0.0116979
-0.0193284 0.00588443 -0.00530558
-0.0260188 -0.000157604 -0.0102298
-0.0268331 0.00554612 -0.00508325
-0.0332406 0.000144028 -0.00502163
-0.0331679 0.00220679 -0.00483974
-0.0192147 0.00304599 0.0118329
-0.0194455 0.00567622 0.00554129
-0.0193666 0.00580884 0.00874496
-0.0256416 -0.000302409 0.0107567
-0.0269818 0.0055405 0.00520561
-0.0263833 0.00551869 0.00806569
-0.0335791 -8.71291e-06 0.00510792
-0.033434 -0.000265705 0.00701048
-0.0337877 0.00200088 0.00515526
-0.0331887 0.0018175 0.0070777
-0.0199662 0.00903983 -0.0106829
-0.0197485 0.00913597 -0.00843204
-0.019434 0.00902411 -0.00553402
-0.0259029 0.00294365 -0.00991957
-0.0261122 0.00556063 -0.00982627
-0.0247441 0.00814999 -0.00944488
-0.0256143 0.00803384 -0.00747622
-0.0262837 0.00817696 -0.00505489
-0.0328143 0.00441361 -0.0044509
-0.020288 0.00849861 0.00882997
-0.0200244 0.00861822 0.0111011
-0.0255165 0.00259326 0.010632
-0.0254742 0.00529921 0.0102575
-0.0257251 0.0079769 0.00784595
-0.0246619 0.00786398 0.0098007
-0.0324515 0.00411524 0.0067431
-0.0198307 0.0110609 -0.00807635
-0.023341 0.0101831 -0.00892188
-0.0239009 0.00990481 -0.00720343
-0.0192014 0.0117406 -0.0027812
-0.024927 0.0101374 -0.00518823
-0.0192951 0.0117331 0.00300668
-0.0249615 0.0103959 -0.00260563
-0.0251667 0.0106507 0.000154591
-0.025364 0.0101804 0.0029635
-0.0326352 0.00482273 4.50383e-05
-0.0320332 0.0066561 7.35074e-05
-0.0202255 0.0105972 0.00849815
-0.0258178 0.00968934 0.00551842
-0.0243777 0.00962546 0.00758529
-0.0234363 0.00984247 0.00930283
-0.0283704 -0.00892162 -0.00676982
-0.0290316 -0.00666723 -0.00926837
-0.0320448 -0.00527168 -0.00739534
-0.0336554 -0.00405558 -0.00697657
-0.0309205 -0.00886797 -0.00196126
-0.0306649 -0.00667499 -0.00707619
-0.0316381 -0.00447341 -0.00699585
-0.0354332 -0.00647447 -0.00450319
-0.0364385 -0.00644984 -0.00311233
-0.0361234 -0.00674446 -0.00182767
-0.0364485 -0.00483328 -0.0047837
-0.0370093 -0.0046408 -0.00317323
-0.0371632 -0.00496944 -0.00153714
-0.0372687 -0.00293425 -0.00309928
-0.0375775 -0.00313856 -0.00147173
-0.0310311 -0.00879126 0.00236602
-0.0325152 -0.00446731 -0.00459086
-0.0363324 -0.00651608 7.08107e-05
-0.0373641 -0.00502428 2.12745e-05
-0.0378104 -0.0035669 -7.31599e-07
-0.0377618 -0.00375662 0.00126969
-0.0286634 -0.00885837 0.00663181
-0.0309456 -0.00669699 0.00702585
-0.0319057 -0.00460651 0.00696411
-0.0360773 -0.00688118 0.00188185
-0.0365584 -0.006379 0.00305915
-0.035533 -0.00647017 0.00434901
-0.0372236 -0.00507541 0.00151351
-0.0371503 -0.00459597 0.00307284
-0.0365446 -0.00483725 0.0046365
-0.0374894 -0.00290704 0.00295604
-0.0291825 -0.00681119 0.00915061
-0.0321943 -0.00532222 0.00719831
-0.0337744 -0.00411536 0.00679012
-0.0309807 -0.00193251 -0.00937693
-0.0357252 -0.00279517 -0.00655899
-0.0369541 -0.00277874 -0.0049859
-0.0372196 -0.0013094 -0.00487483
-0.0307024 -0.00209327 0.00934257
-0.0370702 -0.00284306 0.00472927
-0.0357804 -0.00289704 0.0063184
-0.0373469 -0.00136895 0.00453195
-0.0315305 0.00248844 -0.00893969
-0.0361397 -0.00101708 -0.00700114
-0.0367224 -0.00015672 -0.00680077
-0.0374603 -8.22545e-05 -0.00530077
-0.0376491 0.000191649 -0.00375724
-0.0366643 0.000685841 -0.00701283
-0.037379 0.00123039 -0.00560384
-0.0376926 0.00134692 -0.00422001
-0.0307592 0.00219709 0.00885222
-0.0362095 -0.000992239 0.00660111
-0.0373682 5.84707e-05 0.0045468
-0.036664 -0.000277315 0.00644884
-0.0375713 0.00090954 0.0048707
-0.0366012 0.000361434 0.00666198
-0.0296117 0.0063387 -0.00876664
-0.0310663 0.00632182 -0.00671627
-0.0318905 0.00649524 -0.00434841
-0.035721 0.0027122 -0.00656584
-0.036841 0.00284524 -0.00511012
-0.0372437 0.00286946 -0.00356402
-0.0311842 0.00631666 0.00675004
-0.0294081 0.00619084 0.00885266
-0.037054 0.00240451 0.00451214
-0.0356667 0.00231257 0.00620684
-0.028233 0.00836959 -0.00649497
-0.0339183 0.00396049 -0.00698983
-0.0322673 0.00510992 -0.00747589
-0.0302543 0.00867963 -0.00188303
-0.0363913 0.00471451 -0.0048529
-0.0369266 0.00460624 -0.00332756
-0.0371469 0.0044747 -0.00180559
-0.0352893 0.00642561 -0.00469495
-0.0361687 0.00662917 -0.00315543
-0.0360824 0.0065028 -0.00192092
-0.0304002 0.00903037 0.00195049
-0.0366738 0.00418429 1.6559e-05
-0.0360726 0.00613879 5.47795e-05
-0.0284456 0.00835581 0.00657455
-0.0371996 0.00407691 0.00171218
-0.0369743 0.00416052 0.00331197
-0.0366199 0.00443549 0.00467076
-0.0362436 0.00617133 0.00203508
-0.036468 0.00618943 0.00309401
-0.0355372 0.00614669 0.00454822
-0.0339462 0.00360459 0.00681422
-0.0322698 0.00486026 0.00735315
-0.04 0 0
-0.04 0 0
-0.04 0 0
-0.04 0 0
-0.04 0 0
-0.04 0 0
-0.04 0 0
-0.04 0 0
-0.04 0 0
-0.04 0 0
-0.04 0 0
-0.04 0 0
-0.04 0 0
-0.04 0 0
-0.04 0 0
-0.04 0 0
-0.04 0 0
-0.04 0 0
-0.04 0 0
-0.04 0 0
-0.04 0 0
-0.04 0 0
-0.04 0 0
-0.04 0 0
-0.04 0 0
-0.04 0 0
-0.04 0 0
-0.04 0 0
-0.04 0 0
-0.04 0 0
-0.04 0 0
-0.04 0 0
-0.04 0 0
-0.04 0 0
-0.04 0 0
-0.04 0 0
-0.04 0 0
-0.04 0 0
-0.04 0 0
-0.04 0 0
-0.04 0 0
-0.04 0 0
-0.04 0 0
-0.04 0 0
-0.04 0 0
-0.04 0 0
-0.04 0 0
-0.04 0 0
-0.04 0 0
-0.04 0 0
-0.04 0 0
-0.04 0 0
-0.04 0 0
-0.04 0 0
-0.04 0 0
-0.04 0 0
-0.0322487 0.00716896 -0.00690462
-0.0347992 0.00296227 -0.00588826
-0.0172272 -0.0101219 0.00704403
-0.0371624 0.00551534 -0.0027593
-0.04 0 0
-0.0375424 0.00395328 -0.00404017
0 0 0
-0.04 0 0
0 0 0
-0.0118951 0.00931507 -0.00145668
-0.04 0 0
-0.0367576 -0.000270052 0.00400677
-0.0145797 0.00944817 -0.00726829
-0.0170984 0.00939135 -0.00950781
-0.04 0 0
-0.0342588 -0.00206798 0.0076741
-0.0384136 -0.00116975 0.0038523
-0.00747382 -0.00683782 -0.00628465
-0.00492897 -0.00282525 -0.00536415
-0.0155042 -0.00201532 -0.0106221
-0.026335 -0.00659719 -0.0096077
-0.0172423 -0.00866442 -0.00953083
-0.0146003 -0.0089339 -0.00753351
-0.00510968 0.00713812 0.00123822
-0.00157386 -0.0027839 -0.00254712
-0.0133622 -0.00631217 -0.00911707
-0.0134011 -0.00771472 -0.00767156
0 0 0
-0.0384569 -0.000672897 0.00402369
-0.04 0 0
-0.037644 -0.000847648 0.00543645
-0.00648171 0.00404955 -0.00694915
0 0 0
-0.00222269 -0.00376259 -0.00349667
-0.0025681 -0.00522018 -0.00228419
-0.00183822 -0.00391033 -0.00253745
-0.0169136 0.0103836 -0.0066704
-0.016431 0.00911484 -0.00835751
-0.00285634 -0.00187902 -0.00366857
-0.04 0 0
-0.00396744 -0.00432624 -0.000937834
0 0 0
-0.00220408 0.000957874 -0.00513241
0 0 0
-0.0270658 0.00680231 -0.00926338
-0.0330349 0.00430084 0.00320602
-0.0160004 -0.0106401 0.00342473
-0.0330395 0.00397972 0.00765203
-0.0253594 0.00923271 0.007847
-0.0228059 0.00894815 0.00995812
-0.0158143 0.00912166 -0.00687113
-0.00553293 -0.00161657 -0.00726789
-0.0020651 -0.00166267 -0.0034411
-0.00666461 0.00395804 0.00714641
0 0 0
-0.00246316 -0.00512693 0.0022421
0 0 0
-0.00173299 -0.00384679 0.00248473
-0.04 0 0
-0.00608018 0.00533674 -0.00592034
-0.00749924 0.00682058 -0.00608499
-0.00476398 0.00272506 -0.00522308
-0.00216702 0.00364095 -0.00338914
-0.00249526 0.00508529 -0.00219575
-0.00177424 0.00374364 -0.00244622
0 0 0
0 0 0
-0.00152406 0.00182078 -0.00332318
-0.00150988 0.0026042 -0.00249839
-0.00487051 0.00432825 -0.00548586
0 0 0
0 0 0
-0.00151108 -0.000669089 -0.00380871
0 0 0
-0.00144195 -6.24665e-05 -0.00386437
-0.0014258 0.00035472 -0.00370226
-0.00217254 -0.000222952 -0.00519089
0 0 0
-0.00238355 0.000891238 0.00545638
-0.0168619 -0.0098803 -0.00692676
-0.0159411 -0.00866857 -0.00698568
-0.0165911 -0.00853971 -0.00836242
-0.00483985 0.00268039 0.00523635
-0.00604608 0.00528949 0.00607618
-0.00749838 0.00673849 0.00621054
-0.027426 0.00340206 0.00995077
0 0 0
-0.00164032 0.0036862 -0.00175564
0 0 0
-0.00171117 0.00415114 -0.00109478
-0.00247075 0.0054005 -0.00152347
-0.0387196 0.000411128 0.00316869
0 0 0
-0.00252763 -0.0054881 -0.00159691
-0.00982292 0.00686291 0.0017092
-0.00521042 0.00197584 0.00740747
-0.00152477 0.00109546 0.0038371
-0.00157155 0.000704792 0.00405516
-0.00522403 -0.0073167 -0.00093987
-0.00159672 -0.00400707 -0.00054378
-0.00548849 -0.00181617 0.00732374
0 0 0
-0.00147455 0.00374669 0.000812944
-0.00230686 0.00512152 0.00175575
0 0 0
-0.0015465 0.00386879 0.00131472
-0.0012572 0.00280887 0.00112492
-0.00150224 0.00347639 0.0018857
-0.00732148 -0.00695665 -0.00130618
-0.0121063 -0.00929235 -0.00173238
-0.00415848 -0.00586582 -0.000986104
-0.00509084 0.00214458 -0.00707368
-0.00141939 0.00115226 -0.0035456
-0.00144683 0.000772702 -0.0037629
-0.00489285 0.00424262 0.00568549
-0.00159459 0.00177168 0.00355221
-0.00409749 0.00417616 0.00449268
-0.00144328 0.0025642 0.00256831
0 0 0
-0.00208525 0.00355133 0.00337366
-0.00237006 0.00493408 0.00224477
-0.00166644 0.00363806 0.00248356
-0.00148968 -0.00278362 0.00251502
-0.00195341 -0.00176313 0.0034051
-0.00214079 -0.00372103 0.00339333
-0.00493144 -0.00282769 0.005276
-0.00750894 -0.00686682 0.00623293
-0.0383086 0.00359576 0.00226154
-0.04 0 0
-0.00281612 0.00389161 0.00132399
0 0 0
-0.00271115 0.00281299 0.0026224
-0.0347628 0.00428108 0.00625833
-0.0383082 0.00273113 0.003191
-0.00701615 -0.00385917 -0.00716717
-0.00528162 -0.00417447 -0.00570227
-0.00981195 -0.00653903 -0.00718396
-0.00624825 -0.00533149 -0.0061266
-0.0255363 -0.00927766 0.00786911
-0.0229036 -0.00879084 0.00982047
-0.0330052 0.000125716 -0.00626029
-0.00156168 -0.000864224 0.0038766
-0.00130628 -0.00031884 0.00293613
0 0 0
-0.0375809 -0.000819411 -0.00572131
-0.04 0 0
-0.00689594 -0.0010456 -0.00732754
-0.00288245 -0.000800226 -0.0048873
-0.00118949 -0.000158982 -0.00286637
-0.00806187 0.00671673 -0.00390195
-0.0158458 0.0105466 -0.00355535
-0.0123155 -0.00332944 0.00945574
-0.00427946 -0.00182893 0.00591747
0 0 0
-0.00142662 -0.00298657 -0.000862602
-0.00167704 -0.00376835 -0.00181509
-0.00174039 -0.00421213 -0.00113548
-0.04 0 0
-0.04 0 0
-0.0373725 0.00549562 -0.00195548
-0.00514686 -0.0071671 0.00121593
-0.00150395 -0.00366425 0.000139034
-0.0146833 -0.00910225 0.00776965
-0.0167322 -0.00864856 0.00872979
-0.0173984 -0.00877456 0.00988228
-0.00154758 -0.00359074 0.00186491
0 0 0
-0.0134347 -0.00786338 0.00790853
-0.0134546 -0.00637424 0.00932914
-0.0076192 -0.00267443 0.00702006
-0.00723786 -0.00125169 0.00713425
-0.0154903 -0.00191157 0.0106788
-0.00799988 -0.00401958 0.00681739
-0.0123405 -0.00634552 0.00798913
-0.00433797 -0.0042339 0.00442994
-0.0357657 0.00450111 -0.00266285
-0.0373928 0.00519882 0.00263419
-0.04 0 0
-0.0380924 0.00390451 0.00297103
-0.0268982 -0.00655531 -0.00829584
-0.0271762 -0.0034751 -0.00985171
0 0 0
-0.00228832 -0.000442923 0.00536307
-0.00154185 0.00023451 0.00396829
-0.00152114 -0.000225492 0.00400074
-0.0172575 0.00894752 0.0100819
-0.0146022 0.00923721 0.00784578
0 0 0
-0.00149068 -0.00374378 0.000797125
-0.00233167 -0.005148 0.00172337
-0.00155693 -0.00385337 0.00128825
-0.0226449 -0.00863225 -0.00983612
-0.0251548 -0.00923072 -0.00806918
-0.0261288 -0.00804757 -0.00814536
-0.0323573 0.00577571 -0.00293904
-0.0326383 0.00439824 -0.00300946
-0.0317881 0.00731063 8.51815e-05
-0.0232804 -0.0102981 -0.00390206
-0.00702572 -0.00698028 0.0014535
-0.00714684 -0.00698176 6.75821e-05
-0.00395857 -0.00573756 0.0012289
-0.0119505 -0.00941883 0.00151983
-0.010973 -0.00324615 0.00825675
-0.0112469 -0.006454 0.00653338
-0.0162181 -0.0087788 0.00718731
-0.00778915 -0.00541965 0.00552906
-0.00989469 -0.00327588 0.00527761
-0.0106343 -0.00480366 0.0067436
-0.0100685 -0.00331925 0.00685257
-0.0036869 -0.00111266 0.00445779
-0.00271632 -0.00272544 0.00250415
0 0 0