# vtk DataFile Version 3.0
vtk output at time 0.9
ASCII
DATASET UNSTRUCTURED_GRID
POINTS 1331 float
0 0 0 0 0 0.05 0 0 0.1 
0 0 0.15 0 0 0.2 0 0.05 0 
0 0.05 0.05 0 0.05 0.1 0 0.05 0.15 
0 0.05 0.2 0 0.1 0 0 0.1 0.05 
0 0.1 0.1 0 0.1 0.15 0 0.1 0.2 
0 0.15 0 0 0.15 0.05 0 0.15 0.1 
0 0.15 0.15 0 0.15 0.2 0 0.2 0 
0 0.2 0.05 0 0.2 0.1 0 0.2 0.15 
0 0.2 0.2 0.0352783 -0.00873035 -0.00883981 0.038553 -0.00858843 0.0455734 
0.0405477 -0.00902237 0.100101 0.0391788 -0.00886746 0.154402 0.0350241 -0.00890287 0.208853 
0.039228 0.04594 -0.00911187 0.0393265 0.0457535 0.209092 0.0401758 0.100381 -0.00880835 
0.0397956 0.100083 0.208751 0.0402818 0.154567 -0.00894227 0.0400513 0.15437 0.209172 
0.0351613 0.209034 -0.00857222 0.0386469 0.208643 0.0458198 0.0407441 0.208943 0.100206 
0.0393769 0.208837 0.154407 0.035007 0.208985 0.208823 0.0773982 -0.0114533 -0.0110236 
0.0779008 -0.0126584 0.0435446 0.0784795 -0.0128855 0.0997688 0.0765236 -0.0128061 0.156191 
0.0772312 -0.011601 0.211378 0.0771357 0.0433542 -0.012097 0.0769885 0.0434761 0.212706 
0.0781353 0.0999099 -0.0128812 0.078713 0.0999694 0.213115 0.0772264 0.156905 -0.0131342 
0.0775172 0.156537 0.21315 0.0775294 0.212179 -0.0109984 0.0774612 0.21299 0.0439434 
0.0790854 0.213005 0.100185 0.0768389 0.21267 0.156419 0.0774796 0.211731 0.211612 
0.120013 -0.00981438 -0.00936328 0.116389 -0.00982743 0.0453882 0.114342 -0.00943479 0.100284 
0.115996 -0.00951137 0.154601 0.119777 -0.00987064 0.209149 0.116165 0.045431 -0.0104934 
0.116226 0.0452498 0.210417 0.114222 0.100188 -0.00998814 0.114877 0.0999584 0.20989 
0.114745 0.154636 -0.0097901 0.115536 0.154326 0.209508 0.119724 0.209152 -0.00919917 
0.117218 0.209255 0.0455665 0.115263 0.209557 0.100138 0.116645 0.209603 0.154527 
0.119891 0.209078 0.20916 0.155 0 0 0.155 0 0.05 
0.155 0 0.1 0.155 0 0.15 0.155 0 0.2 
0.155 0.05 0 0.155 0.05 0.05 0.155 0.05 0.1 
0.155 0.05 0.15 0.155 0.05 0.2 0.155 0.1 0 
0.155 0.1 0.05 0.155 0.1 0.1 0.155 0.1 0.15 
0.155 0.1 0.2 0.155 0.15 0 0.155 0.15 0.05 
0.155 0.15 0.1 0.155 0.15 0.15 0.155 0.15 0.2 
0.155 0.2 0 0.155 0.2 0.05 0.155 0.2 0.1 
0.155 0.2 0.15 0.155 0.2 0.2 0 0 0.025 
0 0.025 0 0.0163495 -0.00536518 -0.00744664 0.0200286 -0.00673981 0.0205541 
0 0 0.075 0 0.025 0.025 0 0.025 0.05 
0 0.025 0.075 0.0209873 -0.00680268 0.0470164 0 0 0.125 
0 0.025 0.1 0.0207706 -0.00697348 0.0733081 0.0210986 -0.00662313 0.100158 
0.0209731 -0.00674582 0.126926 0 0 0.175 0 0.025 0.125 
0 0.025 0.15 0 0.025 0.175 0.0212019 -0.00667654 0.152991 
0 0.025 0.2 0.020175 -0.00673142 0.179312 0.0162373 -0.00542427 0.207349 
0 0.05 0.025 0 0.075 0 0 0.075 0.025 
0.0181237 0.0211013 -0.00685637 0.0212351 0.0201594 0.0205836 0.0199171 0.0475299 -0.00634596 
0.0213153 0.0748295 -0.00684749 0 0.05 0.075 0 0.075 0.05 
0.0215731 0.0203582 0.0474007 0.021417 0.0474968 0.0204917 0.0223796 0.074335 0.0200964 
0.0409316 0.0185278 0.0455232 0.0419708 0.0181535 0.0727354 0.0411113 0.0457308 0.0183285 
0.0426703 0.0729731 0.0177774 0 0.05 0.125 0 0.075 0.075 
0 0.075 0.1 0 0.075 0.125 0.0218988 0.020136 0.0736891 
0.0222589 0.0202678 0.100136 0.0222629 0.0203934 0.126501 0.0423516 0.0179764 0.099835 
0.0430446 0.0177677 0.127556 0.0436022 0.0729053 0.0447564 0 0.05 0.175 
0 0.075 0.15 0.0220582 0.0204511 0.152746 0.0216288 0.0473376 0.179462 
0.0221944 0.0740492 0.179903 0.0423416 0.0180915 0.154675 0.0414775 0.0455527 0.181745 
0.0422038 0.0727263 0.18206 0 0.075 0.175 0 0.075 0.2 
0.0214169 0.0201375 0.179368 0.0181135 0.0210479 0.206787 0.0200784 0.0473749 0.206347 
0.0212072 0.0745579 0.206924 0 0.1 0.025 0 0.125 0 
0.0213651 0.100534 -0.00661445 0 0.1 0.075 0 0.125 0.025 
0 0.125 0.05 0 0.125 0.075 0.022376 0.100468 0.0205087 
0.0225544 0.12656 0.0204379 0.0434652 0.100074 0.0176994 0.0434006 0.12774 0.0178885 
0 0.1 0.125 0 0.125 0.1 0.0428161 0.0447434 0.0999104 
0.0435524 0.0447947 0.12751 0.0436239 0.10008 0.0446818 0.0426982 0.100011 0.155487 
0.0438832 0.127654 0.0449039 0.0431268 0.127446 0.155216 0.0429534 0.155298 0.100095 
0.0434432 0.155101 0.127662 0.0777887 0.099994 0.100054 0 0.1 0.175 
0 0.125 0.125 0 0.125 0.15 0 0.125 0.175 
0.022131 0.100252 0.179778 0.0223212 0.126434 0.179856 0.043162 0.0449469 0.154736 
0.0424317 0.0999284 0.182232 0.0425057 0.127444 0.182119 0.0434142 0.155118 0.154837 
0 0.125 0.2 0.0211656 0.100317 0.20689 0 0.15 0.025 
0 0.175 0 0 0.175 0.025 0.0210551 0.126297 -0.00665942 
0.020973 0.152825 -0.00612955 0.018438 0.178804 -0.00661036 0.0213152 0.179682 0.020693 
0 0.15 0.075 0 0.175 0.05 0.0221762 0.152693 0.0206587 
0.0216531 0.179559 0.0474981 0.0426053 0.154788 0.0182698 0.0415748 0.181737 0.0456903 
0.042262 0.181906 0.0728754 0 0.15 0.125 0 0.175 0.075 
0 0.175 0.1 0 0.175 0.125 0.0219916 0.179781 0.0737544 
0.0223296 0.179644 0.10017 0.0222904 0.179631 0.126533 0.0433637 0.15479 0.0450826 
0.0426452 0.182016 0.10005 0.043139 0.182242 0.127674 0 0.15 0.175 
0 0.175 0.15 0.0220479 0.152599 0.179684 0.0220977 0.179429 0.152764 
0.0422026 0.15458 0.182075 0.0426698 0.182021 0.15478 0 0.175 0.175 
0 0.175 0.2 0.0208117 0.126159 0.207013 0.0207903 0.152718 0.206456 
0.0214863 0.179629 0.179411 0.0182786 0.178753 0.206738 0 0.2 0.025 
0.0164643 0.205288 -0.00726067 0.0200944 0.206641 0.0207285 0 0.2 0.075 
0.0210382 0.20673 0.0471096 0 0.2 0.125 0.0208511 0.206861 0.0734147 
0.0211795 0.20653 0.100207 0.0210088 0.206716 0.12696 0 0.2 0.175 
0.0212894 0.206512 0.153052 0.0202788 0.206525 0.179301 0.0163118 0.20524 0.207326 
0.0371035 -0.008729 0.0180462 0.0379783 0.0185821 -0.00925657 0.0561947 -0.010423 -0.0098489 
0.0575955 0.0166665 -0.010303 0.0396373 -0.00885022 0.0728734 0.0400513 0.0185728 0.0180578 
0.0572655 -0.010256 0.0170252 0.0584004 -0.0105206 0.0442601 0.0589947 -0.0107162 0.0718111 
0.059046 0.0167843 0.0168665 0.0399061 -0.0088663 0.127243 0.0597765 -0.0109096 0.0998324 
0.037171 -0.00889261 0.18196 0.0402674 0.0183918 0.181972 0.0593962 -0.0110772 0.127761 
0.0581849 -0.0108804 0.155618 0.0572224 -0.0105012 0.183233 0.059069 0.016626 0.183405 
0.0379186 0.0184047 0.209317 0.0559807 -0.0106005 0.210124 0.0574572 0.016551 0.210565 
0.0397869 0.0729278 -0.00897538 0.0583327 0.0443578 -0.0106555 0.0397325 0.0727536 0.208976 
0.058324 0.0443313 0.210871 0.0403232 0.127325 -0.00891109 0.0593932 0.0720167 -0.0109789 
0.0596992 0.100105 -0.0110761 0.0596954 0.12804 -0.0111383 0.0400519 0.12711 0.209093 
0.0593667 0.0720524 0.211048 0.0596052 0.0999204 0.210956 0.0596381 0.1278 0.211123 
0.0384589 0.181907 -0.00904187 0.0406211 0.181802 0.018313 0.0590173 0.15615 -0.010887 
0.0406235 0.181686 0.182011 0.038203 0.181715 0.209373 0.0589605 0.155785 0.211061 
0.0371197 0.208898 0.0183477 0.0579135 0.184049 -0.0102303 0.0561779 0.211158 -0.00954357 
0.0398074 0.208802 0.0730829 0.059577 0.183749 0.016905 0.0573928 0.210831 0.0172892 
0.0583581 0.210841 0.0446382 0.0592551 0.210799 0.0722199 0.0400811 0.208875 0.12729 
0.0601604 0.210928 0.100115 0.037247 0.208881 0.18195 0.0594016 0.183487 0.183592 
0.059697 0.211097 0.127933 0.0584849 0.210873 0.155772 0.0574028 0.210592 0.183355 
0.0576915 0.183609 0.210742 0.0561043 0.210753 0.210204 0.0778233 -0.0114558 0.0158427 
0.0774633 0.0155998 -0.0115554 0.0987705 -0.0105072 -0.0104186 0.0981978 -0.010457 0.0165262 
0.0782518 -0.0127523 0.07149 0.0779756 0.0155433 0.0156855 0.0781762 0.0435941 0.0155705 
0.0971816 -0.0106683 0.0440365 0.0958607 0.0441946 0.0162803 0.0781255 -0.0130734 0.128042 
0.0782152 0.0436039 0.0438759 0.0781466 0.0437207 0.156246 0.0966391 -0.0108766 0.0718677 
0.0959261 -0.0109063 0.100047 0.0964434 -0.0113409 0.128092 0.095121 0.0442091 0.0440871 
0.0945498 0.0441168 0.156268 0.112322 0.0447484 0.100206 0.112295 0.0448766 0.127648 
0.0772364 -0.0116284 0.184254 0.0772919 0.0155022 0.184623 0.0778419 0.0437164 0.184731 
0.0959853 -0.0106352 0.155997 0.0952647 0.0440442 0.184065 0.077267 0.0155218 0.212 
0.097623 -0.0105245 0.183329 0.0985345 -0.0107116 0.210231 0.0779812 0.0714816 -0.0125312 
0.0976198 0.0165698 -0.0107132 0.0968533 0.016655 0.0164157 0.0969841 0.0440597 -0.0109525 
0.0961794 0.0717891 -0.0111851 0.0781416 0.0715897 0.212921 0.0961935 0.0165262 0.183651 
0.0973076 0.0163848 0.210663 0.0969494 0.043862 0.211122 0.0963988 0.0716575 0.211603 
0.0777716 0.128456 -0.0129267 0.078289 0.156504 0.0441275 0.095728 0.0998242 -0.0112586 
0.0947255 0.156117 0.0443712 0.112482 0.100149 0.0444737 0.112573 0.127419 0.0446756 
0.0784049 0.12839 0.213087 0.0781528 0.156263 0.156135 0.07827 0.156441 0.184683 
0.096097 0.0996528 0.211816 0.0945601 0.15609 0.155764 0.0952359 0.156062 0.183919 
0.112124 0.0999716 0.155617 0.112333 0.099688 0.182675 0.11188 0.127179 0.155668 
0.112591 0.126973 0.182745 0.0775858 0.185026 -0.0118098 0.0778418 0.185121 0.0156573 
0.0782178 0.185005 0.0438647 0.0958895 0.128247 -0.0109168 0.0957122 0.156148 -0.0108235 
0.0972867 0.184001 -0.0103956 0.0962417 0.183862 0.0167524 0.0954182 0.184012 0.0444054 
0.112981 0.154848 0.045083 0.0772599 0.184431 0.184789 0.0774968 0.184565 0.212288 
0.0962655 0.127832 0.211689 0.0963634 0.155821 0.211289 0.0961045 0.183783 0.183681 
0.0973717 0.183661 0.210806 0.113403 0.154495 0.182413 0.0777218 0.212221 0.0160446 
0.098911 0.211209 -0.00979891 0.0982327 0.21089 0.0170492 0.0784456 0.212987 0.0719182 
0.097014 0.211158 0.044258 0.0783817 0.212976 0.128361 0.0969446 0.211442 0.0721159 
0.0966935 0.211732 0.100173 0.0964801 0.211194 0.128282 0.113197 0.15532 0.100046 
0.113929 0.182312 0.10008 0.0773078 0.211727 0.184449 0.0960461 0.210672 0.15612 
0.0977075 0.210576 0.183396 0.0988136 0.21081 0.210246 0.118259 -0.00975128 0.0175447 
0.117481 0.0176858 -0.0101761 0.13916 -0.00576579 -0.00802702 0.137296 0.0205601 -0.00762317 
0.115225 -0.00970566 0.0728256 0.11556 0.0176746 0.017227 0.114416 0.0450902 0.017322 
0.135227 -0.00709436 0.0200576 0.134064 -0.00704195 0.0465681 0.134394 -0.00734755 0.072978 
0.134059 0.0196929 0.0197472 0.133379 0.0199192 0.0465093 0.133197 0.0195757 0.0733002 
[...]
POINT_DATA 1331
VECTORS displacement float
0 0 0
0 0 0
0 0 0
0 0 0
0 0 0
0 0 0
0 0 0
0 0 0
0 0 0
0 0 0
0 0 0
0 0 0
0 0 0
0 0 0
0 0 0
0 0 0
0 0 0
0 0 0
0 0 0
0 0 0
0 0 0
0 0 0
0 0 0
0 0 0
0 0 0
-0.0147217 -0.00873035 -0.00883981
-0.011447 -0.00858843 -0.00442664
-0.00945229 -0.00902237 0.00010093
-0.0108212 -0.00886746 0.00440241
-0.0149759 -0.00890287 0.00885271
-0.010772 -0.00405995 -0.00911187
-0.0106735 -0.00424649 0.00909179
-0.00982416 0.000381345 -0.00880835
-0.0102044 8.25883e-05 0.0087514
-0.00971817 0.0045673 -0.00894227
-0.00994868 0.00436996 0.00917237
-0.0148387 0.00903439 -0.00857222
-0.0113531 0.00864273 -0.00418023
-0.00925587 0.00894314 0.000206462
-0.0106231 0.00883676 0.00440743
-0.014993 0.00898506 0.00882285
-0.0226018 -0.0114533 -0.0110236
-0.0220992 -0.0126584 -0.00645537
-0.0215205 -0.0128855 -0.000231225
-0.0234764 -0.0128061 0.00619123
-0.0227688 -0.011601 0.011378
-0.0228643 -0.00664584 -0.012097
-0.0230115 -0.00652394 0.0127058
-0.0218647 -9.00876e-05 -0.0128812
-0.021287 -3.0581e-05 0.0131148
-0.0227736 0.00690547 -0.0131342
-0.0224828 0.00653709 0.0131502
-0.0224706 0.0121786 -0.0109984
-0.0225388 0.0129896 -0.00605659
-0.0209146 0.0130052 0.000184622
-0.0231611 0.0126699 0.0064185
-0.0225204 0.0117307 0.0116119
-0.0299872 -0.00981438 -0.00936328
-0.0336106 -0.00982743 -0.00461177
-0.0356575 -0.00943479 0.000283976
-0.0340036 -0.00951137 0.00460081
-0.0302234 -0.00987064 0.0091495
-0.033835 -0.00456898 -0.0104934
-0.0337741 -0.00475022 0.0104168
-0.0357783 0.000188224 -0.00998814
-0.0351227 -4.16217e-05 0.00989035
-0.035255 0.00463563 -0.0097901
-0.0344639 0.00432578 0.00950817
-0.0302758 0.00915242 -0.00919917
-0.0327819 0.00925481 -0.00443348
-0.0347373 0.00955696 0.000137554
-0.0333554 0.00960267 0.0045271
-0.0301088 0.00907784 0.00915988
-0.045 0 0
-0.045 0 0
-0.045 0 0
-0.045 0 0
-0.045 0 0
-0.045 0 0
-0.045 0 0
-0.045 0 0
-0.045 0 0
-0.045 0 0
-0.045 0 0
-0.045 0 0
-0.045 0 0
-0.045 0 0
-0.045 0 0
-0.045 0 0
-0.045 0 0
-0.045 0 0
-0.045 0 0
-0.045 0 0
-0.045 0 0
-0.045 0 0
-0.045 0 0
-0.045 0 0
-0.045 0 0
0 0 0
0 0 0
-0.00865052 -0.00536518 -0.00744664
-0.00497143 -0.00673981 -0.00444586
0 0 0
0 0 0
0 0 0
0 0 0
-0.00401274 -0.00680268 -0.00298362
0 0 0
0 0 0
-0.00422943 -0.00697348 -0.00169194
-0.00390136 -0.00662313 0.000158057
-0.00402691 -0.00674582 0.00192582
0 0 0
0 0 0
0 0 0
0 0 0
-0.00379814 -0.00667654 0.00299092
0 0 0
-0.00482503 -0.00673142 0.00431195
-0.00876267 -0.00542427 0.00734918
0 0 0
0 0 0
0 0 0
-0.00687626 -0.0038987 -0.00685637
-0.00376492 -0.00484064 -0.0044164
-0.00508286 -0.00247011 -0.00634596
-0.00368469 -0.000170527 -0.00684749
0 0 0
0 0 0
-0.00342693 -0.00464184 -0.00259931
-0.00358299 -0.00250321 -0.00450827
-0.00262037 -0.000664977 -0.00490358
-0.00906836 -0.00647215 -0.00447681
-0.00802917 -0.00684649 -0.00226456
-0.00888867 -0.00426916 -0.00667147
-0.00732968 -0.00202695 -0.0072226
0 0 0
0 0 0
0 0 0
0 0 0
-0.00310119 -0.00486398 -0.00131085
-0.00274107 -0.0047322 0.000136429
-0.00273714 -0.00460658 0.001501
-0.00764836 -0.00702363 -0.000165019
-0.00695541 -0.00723234 0.00255559
-0.00639779 -0.00209465 -0.00524361
0 0 0
0 0 0
-0.00294179 -0.00454893 0.00274607
-0.0033712 -0.00266245 0.00446248
-0.00280562 -0.00095082 0.00490336
-0.00765837 -0.00690854 0.00467526
-0.00852247 -0.00444731 0.00674478
-0.00779618 -0.0022737 0.00705991
0 0 0
0 0 0
-0.00358306 -0.00486251 0.00436785
-0.00688651 -0.0039521 0.00678738
-0.00492159 -0.00262511 0.00634662
-0.00379283 -0.000442064 0.00692368
0 0 0
0 0 0
-0.00363493 0.000534061 -0.00661445
0 0 0
0 0 0
0 0 0
0 0 0
-0.00262402 0.000467974 -0.00449132
-0.00244557 0.00155951 -0.00456213
-0.00653478 7.37175e-05 -0.00730062
-0.00659944 0.00273986 -0.00711145
0 0 0
0 0 0
-0.00718392 -0.00525663 -8.96075e-05
-0.00644762 -0.00520534 0.00250957
-0.00637607 8.02154e-05 -0.00531818
-0.00730176 1.05623e-05 0.00548661
-0.00611677 0.00265408 -0.00509608
-0.00687316 0.00244624 0.0052163
-0.00704662 0.00529783 9.45484e-05
-0.00655676 0.00510054 0.00266212
-0.0222113 -6.023e-06 5.35448e-05
0 0 0
0 0 0
0 0 0
0 0 0
-0.00286904 0.000252083 0.00477769
-0.00267883 0.00143381 0.00485588
-0.00683803 -0.00505305 0.00473616
-0.00756832 -7.16181e-05 0.00723229
-0.00749434 0.00244374 0.00711902
-0.00658583 0.00511809 0.0048367
0 0 0
-0.00383441 0.000316862 0.00688954
0 0 0
0 0 0
0 0 0
-0.00394495 0.00129658 -0.00665942
-0.00402699 0.00282464 -0.00612955
-0.00656198 0.00380411 -0.00661036
-0.00368477 0.00468239 -0.00430701
0 0 0
0 0 0
-0.00282383 0.00269325 -0.00434132
-0.0033469 0.00455875 -0.00250193
-0.00739473 0.00478759 -0.00673017
-0.00842521 0.00673713 -0.00430969
-0.00773801 0.00690594 -0.00212463
0 0 0
0 0 0
0 0 0
0 0 0
-0.00300845 0.00478052 -0.00124559
-0.00267037 0.00464396 0.000169919
-0.00270964 0.00463145 0.00153286
-0.00663632 0.0047902 -0.00491742
-0.00735478 0.00701615 5.04212e-05
-0.00686099 0.00724205 0.00267444
0 0 0
0 0 0
-0.00295206 0.00259931 0.0046835
-0.00290234 0.00442862 0.00276401
-0.00779737 0.00457977 0.00707495
-0.00733019 0.00702087 0.00478026
0 0 0
0 0 0
-0.00418832 0.0011594 0.00701272
-0.00420971 0.00271814 0.00645586
-0.00351375 0.00462905 0.00441074
-0.00672138 0.0037531 0.00673756
0 0 0
-0.00853565 0.00528758 -0.00726067
-0.00490556 0.00664123 -0.00427146
0 0 0
-0.00396181 0.00672968 -0.00289035
0 0 0
-0.00414891 0.00686126 -0.00158529
-0.00382047 0.00652993 0.000206856
-0.00399118 0.00671611 0.00196027
0 0 0
-0.00371065 0.0065124 0.00305225
-0.00472116 0.00652478 0.00430055
-0.00868816 0.00523954 0.00732584
-0.0128965 -0.008729 -0.00695375
-0.0120217 -0.00641789 -0.00925657
-0.0188053 -0.010423 -0.0098489
-0.0174045 -0.00833349 -0.010303
-0.0103627 -0.00885022 -0.00212657
-0.00994866 -0.00642715 -0.00694218
-0.0177345 -0.010256 -0.00797479
-0.0165996 -0.0105206 -0.00573991
-0.0160053 -0.0107162 -0.00318893
-0.015954 -0.00821566 -0.00813348
-0.0100939 -0.0088663 0.00224266
-0.0152235 -0.0109096 -0.000167567
-0.012829 -0.00889261 0.00696004
-0.00973263 -0.00660821 0.00697154
-0.0156038 -0.0110772 0.00276125
-0.0168151 -0.0108804 0.00561765
-0.0177776 -0.0105012 0.00823327
-0.015931 -0.00837404 0.00840472
-0.0120814 -0.00659529 0.00931657
-0.0190193 -0.0106005 0.0101238
-0.0175428 -0.00844902 0.0105651
-0.0102131 -0.00207218 -0.00897538
-0.0166673 -0.00564222 -0.0106555
-0.0102675 -0.00224636 0.0089762
-0.016676 -0.00566865 0.0108711
-0.00967677 0.0023254 -0.00891109
-0.0156068 -0.00298325 -0.0109789
-0.0153008 0.000105035 -0.0110761
-0.0153046 0.00303962 -0.0111383
-0.00994809 0.00211048 0.00909324
-0.0156333 -0.0029476 0.0110481
-0.0153948 -7.95967e-05 0.0109559
-0.0153619 0.00279989 0.0111234
-0.0115411 0.00690675 -0.00904187
-0.00937888 0.00680235 -0.00668702
-0.0159827 0.00615016 -0.010887
-0.00937652 0.00668635 0.00701082
-0.011797 0.00671461 0.00937294
-0.0160395 0.00578522 0.0110608
-0.0128803 0.00889818 -0.00665234
-0.0170865 0.00904907 -0.0102303
-0.0188221 0.011158 -0.00954357
-0.0101926 0.00880234 -0.00191706
-0.015423 0.00874897 -0.00809503
-0.0176072 0.0108311 -0.00771082
-0.0166419 0.0108415 -0.00536184
-0.0157449 0.0107992 -0.00278012
-0.00991886 0.00887525 0.00229012
-0.0148396 0.0109283 0.000115155
-0.012753 0.00888082 0.00695015
-0.0155984 0.00848685 0.00859221
-0.015303 0.0110969 0.00293281
-0.0165151 0.010873 0.00577244
-0.0175972 0.0105916 0.00835466
-0.0173085 0.0086085 0.0107419
-0.0188957 0.0107526 0.0102039
-0.0221767 -0.0114558 -0.00915727
-0.0225367 -0.00940023 -0.0115554
-0.0262295 -0.0105072 -0.0104186
-0.0268022 -0.010457 -0.00847382
-0.0217482 -0.0127523 -0.00351005
-0.0220244 -0.00945672 -0.00931447
-0.0218238 -0.00640587 -0.00942953
-0.0278184 -0.0106683 -0.00596355
-0.0291393 -0.00580541 -0.00871968
-0.0218745 -0.0130734 0.0030423
-0.0217848 -0.00639605 -0.0061241
-0.0218534 -0.00627935 0.0062456
-0.0283609 -0.0108766 -0.00313232
-0.0290739 -0.0109063 4.693e-05
-0.0285566 -0.0113409 0.00309232
-0.029879 -0.0057909 -0.00591289
-0.0304502 -0.00588325 0.00626796
-0.0376778 -0.00525162 0.000206173
-0.0377046 -0.00512338 0.00264834
-0.0227636 -0.0116284 0.00925379
-0.0227081 -0.00949781 0.00962319
-0.0221581 -0.00628363 0.00973148
-0.0290147 -0.0106352 0.00599681
-0.0297353 -0.0059558 0.00906454
-0.022733 -0.00947816 0.012
-0.027377 -0.0105245 0.00832924
-0.0264655 -0.0107116 0.0102306
-0.0220188 -0.00351841 -0.0125312
-0.0273802 -0.00843015 -0.0107132
-0.0281467 -0.00834496 -0.0085843
-0.0280159 -0.00594034 -0.0109525
-0.0288206 -0.00321092 -0.0111851
-0.0218584 -0.00341026 0.0129206
-0.0288065 -0.0084738 0.00865101
-0.0276924 -0.00861517 0.0106628
-0.0280506 -0.00613802 0.0111215
-0.0286012 -0.00334246 0.0116029
-0.0222284 0.00345595 -0.0129267
-0.021711 0.00650357 -0.00587253
-0.029272 -0.000175809 -0.0112586
-0.0302745 0.00611722 -0.00562883
-0.0375177 0.000149418 -0.00552633
-0.0374268 0.00241875 -0.00532439
-0.0215951 0.00338978 0.0130873
-0.0218472 0.00626316 0.00613525
-0.02173 0.00644085 0.00968289
-0.028903 -0.000347152 0.0118165
-0.0304399 0.00609012 0.005764
-0.0297641 0.00606171 0.00891945
-0.0378756 -2.84456e-05 0.00561716
-0.0376667 -0.000311985 0.00767547
-0.0381204 0.00217863 0.00566766
-0.0374094 0.00197269 0.00774546
-0.0224142 0.0100256 -0.0118098
-0.0221582 0.0101214 -0.00934266
-0.0217823 0.0100048 -0.00613526
-0.0291105 0.00324686 -0.0109168
-0.0292878 0.00614757 -0.0108235
-0.0277133 0.00900106 -0.0103956
-0.0287583 0.00886226 -0.00824763
-0.0295818 0.00901192 -0.00559462
-0.0370192 0.00484787 -0.00491697
-0.0227401 0.00943096 0.00978878
-0.0225032 0.00956472 0.0122882
-0.0287345 0.0028321 0.0116888
-0.0286366 0.00582075 0.0112891
-0.0288955 0.00878303 0.008681
-0.0276283 0.00866139 0.0108062
-0.0365973 0.00449509 0.0074126
-0.0222782 0.0122214 -0.00895539
-0.026089 0.0112091 -0.00979891
-0.0267673 0.0108897 -0.00795081
-0.0215544 0.0129873 -0.0030818
-0.027986 0.0111583 -0.00574203
-0.0216183 0.0129763 0.00336114
-0.0280554 0.0114419 -0.00288409
-0.0283065 0.0117322 0.000173424
-0.0285199 0.0111937 0.00328197
-0.0368033 0.00531959 4.61237e-05
-0.0360713 0.0073122 8.02936e-05
-0.0226922 0.0117266 0.00944891
-0.0289539 0.0106719 0.00611998
-0.0272925 0.0105761 0.00839634
-0.0261864 0.0108096 0.0102459
-0.0317412 -0.00975128 -0.00745535
-0.0325195 -0.00731416 -0.0101761
-0.0358403 -0.00576579 -0.00802702
-0.0377043 -0.00443988 -0.00762317
-0.0347751 -0.00970566 -0.00217445
-0.0344395 -0.00732537 -0.00777302
-0.0355836 -0.00490976 -0.00767798
-0.0397729 -0.00709436 -0.00494239
-0.040936 -0.00704195 -0.00343186
-0.040606 -0.00734755 -0.00202203
-0.0409413 -0.00530708 -0.00525285
-0.0416213 -0.00508081 -0.00349072
-0.041803 -0.00542428 -0.00169984
-0.0419321 -0.00321529 -0.00339278
-0.0422967 -0.00341741 -0.00161475
-0.0348865 -0.00960282 0.00259991
-0.0366314 -0.00490598 -0.00505551
-0.0408479 -0.00708496 7.03906e-05
-0.042038 -0.00546948 1.67295e-05
-0.0425689 -0.0038777 -4.48766e-06
-0.0425027 -0.00407469 0.00138939
-0.0320774 -0.00968246 0.00728743
-0.0347622 -0.00735319 0.00769343
-0.0359032 -0.00506738 0.00761396
-0.0405491 -0.00749287 0.00206588
-0.0410691 -0.00696665 0.0033563
-0.0398856 -0.00709479 0.00476129
-0.0418655 -0.00552825 0.00165614
-0.0417763 -0.00502952 0.00336544
-0.0410509 -0.00531366 0.00507913
-0.0421828 -0.00317929 0.0032187
-0.0327042 -0.00747473 0.0100274
-0.0360232 -0.00582524 0.00780455
-0.0378552 -0.00450713 0.00740729
-0.034831 -0.00212049 -0.0102748
-0.0401381 -0.0030706 -0.00716468
-0.041556 -0.00305386 -0.00546537
-0.0418658 -0.00144012 -0.00532221
-0.0345469 -0.00232013 0.0102046
-0.0416914 -0.00312536 0.00516842
-0.0402168 -0.00318625 0.00688859
-0.0420195 -0.00151393 0.00493529
-0.0354228 0.00272553 -0.0097752
-0.0406203 -0.00110917 -0.00764275
-0.0412757 -0.000185608 -0.00741318
-0.0421445 -9.15647e-05 -0.00576984
-0.0423913 0.000212299 -0.0040828
-0.0412058 0.000718149 -0.00764798
-0.0420443 0.00132375 -0.00610624
-0.0424185 0.00147638 -0.00457287
-0.0346083 0.00237129 0.00966382
-0.0407201 -0.00109553 0.00719625
-0.0420584 4.2107e-05 0.00495283
-0.041228 -0.000329524 0.00702317
-0.0422731 0.000980891 0.00529127
-0.0411701 0.000352597 0.00724207
-0.0331718 0.00693442 -0.00963801
-0.0348809 0.00691669 -0.00739519
-0.0358783 0.00711301 -0.00479589
-0.0400859 0.00295257 -0.00716868
-0.0414055 0.00309705 -0.00558897
-0.0419072 0.00312089 -0.00389258
-0.0350334 0.00689125 0.00743349
-0.0329598 0.00672977 0.00973245
-0.0416921 0.00260386 0.00492247
-0.0400903 0.00249038 0.00675784
-0.0315678 0.00910087 -0.00716571
-0.0379908 0.0043202 -0.00765966
-0.0360878 0.00557897 -0.0081371
-0.0340047 0.00948594 -0.00208799
-0.0408655 0.00516249 -0.00533567
-0.0415115 0.00502543 -0.00367199
-0.0417838 0.00486624 -0.00200011
-0.0395988 0.00702717 -0.00516619
-0.0406214 0.00722018 -0.00348818
-0.040566 0.00707107 -0.00213493
-0.0341573 0.00985104 0.00217892
-0.0412692 0.00457936 1.8187e-05
-0.0405363 0.00668085 6.17928e-05
-0.0318074 0.00907085 0.00726604
-0.0418527 0.00442869 0.0018914
-0.0415819 0.00451839 0.00364217
-0.0411412 0.00482848 0.00513375
-0.0407498 0.00671042 0.00226165
-0.0409752 0.00672988 0.0034265
-0.0399005 0.00670028 0.00501472
-0.0380449 0.00388902 0.00746033
-0.0361021 0.00526921 0.00800947
-0.045 0 0
-0.045 0 0
-0.045 0 0
-0.045 0 0
-0.045 0 0
-0.045 0 0
-0.045 0 0
-0.045 0 0
-0.045 0 0
-0.045 0 0
-0.045 0 0
-0.045 0 0
-0.045 0 0
-0.045 0 0
-0.045 0 0
-0.045 0 0
-0.045 0 0
-0.045 0 0
-0.045 0 0
-0.045 0 0
-0.045 0 0
-0.045 0 0
-0.045 0 0
-0.045 0 0
-0.045 0 0
-0.045 0 0
-0.045 0 0
-0.045 0 0
-0.045 0 0
-0.045 0 0
-0.045 0 0
-0.045 0 0
-0.045 0 0
-0.045 0 0
-0.045 0 0
-0.045 0 0
-0.045 0 0
-0.045 0 0
-0.045 0 0
-0.045 0 0
-0.045 0 0
-0.045 0 0
-0.045 0 0
-0.045 0 0
-0.045 0 0
-0.045 0 0
-0.045 0 0
-0.045 0 0
-0.045 0 0
-0.045 0 0
-0.045 0 0
-0.045 0 0
-0.045 0 0
-0.045 0 0
-0.045 0 0
-0.045 0 0
-0.0361375 0.0078529 -0.00758333
-0.0389454 0.00321178 -0.00641875
-0.0193833 -0.0111608 0.00775566
-0.0417044 0.00604472 -0.00303606
-0.045 0 0
-0.0421434 0.00434221 -0.00444606
0 0 0
-0.045 0 0
0 0 0
-0.0133432 0.0101934 -0.00159468
-0.045 0 0
-0.0414094 -0.000314955 0.00437211
-0.016493 0.0103262 -0.0079653
-0.0192676 0.0103317 -0.0104489
-0.045 0 0
-0.0385294 -0.00228427 0.0083745
-0.0432008 -0.00128545 0.00419961
-0.00850502 -0.00747762 -0.00687872
-0.00569849 -0.00306112 -0.00582744
-0.0174074 -0.00220288 -0.0116697
-0.0295353 -0.00726796 -0.0105642
-0.0194713 -0.00954369 -0.0104937
-0.016559 -0.00977971 -0.00828322
-0.00572733 0.00775733 0.00135897
-0.00178441 -0.00304512 -0.00279515
-0.0150888 -0.00691754 -0.010012
-0.0151496 -0.00846116 -0.0084314
0 0 0
-0.0432511 -0.00074901 0.00438697
-0.045 0 0
-0.0423049 -0.00095021 0.00592776
-0.00732184 0.00439557 -0.00757531
0 0 0
-0.00255008 -0.0041292 -0.00382556
-0.00295488 -0.00571287 -0.00249755
-0.00210726 -0.00428123 -0.00278859
-0.0190331 0.0114206 -0.00735127
-0.0184645 0.0100293 -0.00920739
-0.00314465 -0.00205057 -0.00399417
-0.045 0 0
-0.00441873 -0.00471198 -0.00103427
0 0 0
-0.00251003 0.00106576 -0.0055828
0 0 0
-0.0303424 0.00749759 -0.0101949
-0.0372534 0.00471676 0.0035343
-0.0179449 -0.0117077 0.00379069
-0.0370735 0.00429715 0.00838029
-0.0283413 0.0101141 0.008662
-0.0255554 0.00987494 0.0109959
-0.0177323 0.0100501 -0.00758077
-0.00622838 -0.00172943 -0.00791575
-0.00234331 -0.00180325 -0.00374132
-0.00753476 0.00431402 0.00777995
0 0 0
-0.00282784 -0.00561373 0.00242788
0 0 0
-0.00198221 -0.00421542 0.00271229
-0.045 0 0
-0.00691615 0.00580198 -0.00648344
-0.00850081 0.00744062 -0.00664463
-0.00547539 0.00294033 -0.00567007
-0.00247696 0.0039858 -0.00370443
-0.00285935 0.00555562 -0.00239839
-0.00202547 0.00409207 -0.00268333
0 0 0
0 0 0
-0.00171462 0.00198279 -0.00360427
-0.00170987 0.00284012 -0.00273928
-0.00548515 0.0047205 -0.0059869
0 0 0
0 0 0
-0.00169753 -0.000708573 -0.00412706
0 0 0
-0.00162683 -4.75043e-05 -0.00419273
-0.00160895 0.000402147 -0.0040216
-0.0024707 -0.000235638 -0.00564321
0 0 0
-0.00272433 0.000989647 0.00593801
-0.0190128 -0.0108804 -0.00765271
-0.0179222 -0.00956081 -0.0077216
-0.0186979 -0.00940705 -0.0092297
-0.00556013 0.00290286 0.00566749
-0.00687391 0.00576036 0.00663251
-0.0084999 0.00735892 0.00675221
-0.0308652 0.00370885 0.0109181
0 0 0
-0.00185964 0.00400338 -0.00192436
0 0 0
-0.00194344 0.00451566 -0.00120069
-0.00282264 0.00587517 -0.00167344
-0.0435636 0.000435092 0.00343864
0 0 0
-0.00289808 -0.00598101 -0.00175974
-0.0108751 0.0075564 0.00190074
-0.00585343 0.00216734 0.00806648
-0.00172108 0.00119308 0.00416346
-0.0017809 0.000776059 0.0044093
-0.00587638 -0.00797786 -0.00103772
-0.00180935 -0.00436282 -0.000604794
-0.00618482 -0.00198082 0.0079795
0 0 0
-0.00166194 0.00405911 0.00089104
-0.0026294 0.00556682 0.00192193
0 0 0
-0.00175194 0.00419844 0.00143416
-0.00140665 0.00302795 0.00121962
-0.0017006 0.0037671 0.00205819
-0.00819964 -0.00760368 -0.00144131
-0.0136046 -0.010179 -0.00190773
-0.00467017 -0.00639177 -0.00109499
-0.00570023 0.00234581 -0.00769283
-0.00159588 0.0012532 -0.00384168
-0.00163351 0.000852123 -0.00408501
-0.00550949 0.00463478 0.00619834
-0.00180049 0.00193239 0.00385502
-0.0045924 0.00455562 0.00489777
-0.00163306 0.00279603 0.00280307
0 0 0
-0.00237902 0.00389296 0.00367431
-0.00271096 0.00538954 0.0024389
-0.00189983 0.00397467 0.00271351
-0.00168698 -0.00305162 0.00274062
-0.00221676 -0.00192956 0.00369903
-0.00245035 -0.0040957 0.00369198
-0.00568827 -0.00308397 0.0057091
-0.00853771 -0.00752703 0.0067745
-0.0430682 0.00390392 0.00249368
-0.045 0 0
-0.00309645 0.00421778 0.00143373
0 0 0
-0.0029648 0.00304924 0.00285233
-0.0390584 0.00465101 0.00686431
-0.0430667 0.00296664 0.00350552
-0.00797626 -0.00418787 -0.00783049
-0.00597723 -0.00455435 -0.0062427
-0.0111259 -0.00713465 -0.00789261
-0.00713786 -0.00580796 -0.00672304
-0.0285843 -0.01019 0.00865596
-0.0256915 -0.00970581 0.0108149
-0.0372025 0.000131161 -0.00686428
-0.00176288 -0.000938276 0.00420851
-0.00145739 -0.000345364 0.00318173
0 0 0
-0.0422161 -0.000910027 -0.0062471
-0.045 0 0
-0.00769706 -0.00113474 -0.00798331
-0.00321358 -0.000869815 -0.00530055
-0.00132991 -0.000159458 -0.00309685
-0.00901655 0.00733797 -0.00428039
-0.0177926 0.0115962 -0.00391471
-0.0138535 -0.00367227 0.0103546
-0.00479921 -0.00200146 0.00644628
0 0 0
-0.00159722 -0.00324571 -0.000947969
-0.00190679 -0.00409782 -0.00199489
-0.00198307 -0.00459143 -0.00124974
-0.045 0 0
-0.045 0 0
-0.0419766 0.00599456 -0.00215969
-0.00577934 -0.00780644 0.00133123
-0.00169877 -0.00397226 0.000148929
-0.0166348 -0.00999143 0.00849165
-0.0188384 -0.00955394 0.00961145
-0.0196467 -0.00969767 0.0108568
-0.00175444 -0.00389786 0.00203349
0 0 0
-0.0151713 -0.00865428 0.00865647
-0.0151884 -0.00702717 0.0102206
-0.00853391 -0.0029472 0.00766766
-0.00809655 -0.00137907 0.00779192
-0.0174238 -0.00211715 0.0117388
-0.00897419 -0.00442274 0.00745603
-0.0138782 -0.00699488 0.00875886
-0.0048705 -0.00463565 0.00483691
-0.0402643 0.00490995 -0.00293448
-0.0419892 0.00567849 0.00290682
-0.045 0 0
-0.0428009 0.00425894 0.00327856
-0.0302116 -0.00722359 -0.00912843
-0.0305507 -0.00383598 -0.0108244
0 0 0
-0.00260856 -0.000490212 0.00583184
-0.00174499 0.000264153 0.0043154
-0.00171981 -0.000236516 0.0043458
-0.0194598 0.00985991 0.0110705
-0.0165068 0.0101067 0.00856826
0 0 0
-0.00168319 -0.00406419 0.000872013
-0.00266234 -0.00560465 0.00188535
-0.00176473 -0.00418732 0.00140222
-0.0253984 -0.0095215 -0.0108388
-0.0281522 -0.0101309 -0.00888796
-0.029288 -0.0088571 -0.00896457
-0.0364711 0.00634501 -0.00324541
-0.036827 0.00483951 -0.00332118
-0.0357878 0.00803127 9.42114e-05
-0.0261937 -0.0113521 -0.00432985
-0.00784678 -0.0076204 0.00159935
-0.00799706 -0.00763213 7.47903e-05
-0.0044346 -0.00623919 0.00134708
-0.0134081 -0.0103113 0.00167999
-0.0122821 -0.00358922 0.00905863
-0.0125736 -0.00712183 0.00717638
-0.0181966 -0.0097047 0.00792324
-0.00872417 -0.00594993 0.00604608
-0.0109637 -0.00363537 0.00581647
-0.0118628 -0.00531444 0.00740944
-0.0112131 -0.00368217 0.00752938
-0.0040886 -0.00122921 0.00485483
-0.0029764 -0.00295876 0.00273424
0 0 0