# vtk DataFile Version 3.0
vtk output at time 0.1
ASCII
DATASET UNSTRUCTURED_GRID
POINTS 1331 float
0 0 0 0 0 0.05 0 0 0.1 
0 0 0.15 0 0 0.2 0 0.05 0 
0 0.05 0.05 0 0.05 0.1 0 0.05 0.15 
0 0.05 0.2 0 0.1 0 0 0.1 0.05 
0 0.1 0.1 0 0.1 0.15 0 0.1 0.2 
0 0.15 0 0 0.15 0.05 0 0.15 0.1 
0 0.15 0.15 0 0.15 0.2 0 0.2 0 
0 0.2 0.05 0 0.2 0.1 0 0.2 0.15 
0 0.2 0.2 0.0485163 -0.00123951 -0.00116911 0.0487799 -0.001206 0.0494228 
0.0489477 -0.00125813 0.100006 0.0488302 -0.00125171 0.150596 0.0484918 -0.00123345 0.201205 
0.0488476 0.049432 -0.00125736 0.0488562 0.049442 0.201258 0.0488975 0.100024 -0.00126726 
0.0488778 0.100004 0.201231 0.0489188 0.150613 -0.00125738 0.0489152 0.150577 0.201264 
0.0484883 0.201278 -0.00116207 0.0487781 0.201213 0.0494404 0.0489634 0.201252 0.100014 
0.0488504 0.201251 0.150588 0.0484817 0.201255 0.201205 0.0974866 -0.00150853 -0.00145542 
0.097529 -0.00166189 0.0491784 0.0975851 -0.00172978 0.099976 0.0973452 -0.00167212 0.150774 
0.0974723 -0.00151807 0.201483 0.097453 0.0491524 -0.00160384 0.0974447 0.0491755 0.201673 
0.0975319 0.0999824 -0.0017513 0.0976233 0.0999989 0.201754 0.0974162 0.150862 -0.00176574 
0.097477 0.150821 0.201731 0.0974933 0.201584 -0.00145217 0.0974669 0.2017 0.0492169 
0.097637 0.201731 0.10002 0.0973816 0.201664 0.150789 0.0974942 0.201536 0.201497 
0.146492 -0.00133171 -0.00122661 0.146167 -0.00135486 0.0494224 0.145994 -0.00129632 0.100038 
0.146132 -0.00131705 0.150578 0.146469 -0.00133978 0.201206 0.146166 0.0494055 -0.00140532 
0.146182 0.0493887 0.201418 0.145974 0.100022 -0.00137218 0.146071 0.10001 0.201381 
0.14599 0.150606 -0.00130555 0.146124 0.150596 0.201286 0.146469 0.201278 -0.00119539 
0.14625 0.201311 0.0494459 0.146098 0.201328 0.100011 0.146196 0.201346 0.150557 
0.146474 0.201282 0.201183 0.195 0 0 0.195 0 0.05 
0.195 0 0.1 0.195 0 0.15 0.195 0 0.2 
0.195 0.05 0 0.195 0.05 0.05 0.195 0.05 0.1 
0.195 0.05 0.15 0.195 0.05 0.2 0.195 0.1 0 
0.195 0.1 0.05 0.195 0.1 0.1 0.195 0.1 0.15 
0.195 0.1 0.2 0.195 0.15 0 0.195 0.15 0.05 
0.195 0.15 0.1 0.195 0.15 0.15 0.195 0.15 0.2 
0.195 0.2 0 0.195 0.2 0.05 0.195 0.2 0.1 
0.195 0.2 0.15 0.195 0.2 0.2 0 0 0.025 
0 0.025 0 0.0242102 -0.000750189 -0.00106525 0.0245393 -0.000926656 0.024413 
0 0 0.075 0 0.025 0.025 0 0.025 0.05 
0 0.025 0.075 0.0246293 -0.00097139 0.049615 0 0 0.125 
0 0.025 0.1 0.0245904 -0.00100324 0.0747903 0.0246197 -0.000963079 0.100019 
0.0245999 -0.000977573 0.125243 0 0 0.175 0 0.025 0.125 
0 0.025 0.15 0 0.025 0.175 0.0246422 -0.000954666 0.150399 
0 0.025 0.2 0.0245466 -0.000914831 0.175585 0.0241986 -0.000741482 0.20107 
0 0.05 0.025 0 0.075 0 0 0.075 0.025 
0.0243533 0.0244741 -0.000956347 0.0246427 0.0243593 0.024404 0.0245146 0.0496511 -0.000913223 
0.0246306 0.074941 -0.000993595 0 0.05 0.075 0 0.075 0.05 
0.0246447 0.0243556 0.0496586 0.0246321 0.0496483 0.024374 0.0247261 0.0748925 0.0242997 
0.0489905 0.0241154 0.0494066 0.0491006 0.0240515 0.0747016 0.0490145 0.0494158 0.0240902 
0.0491498 0.074707 0.0240009 0 0.05 0.125 0 0.075 0.075 
0 0.075 0.1 0 0.075 0.125 0.0246827 0.0243229 0.0748386 
0.0247059 0.0243292 0.100018 0.0247214 0.0243397 0.125201 0.0491309 0.0240251 0.099979 
0.0491938 0.0240019 0.125331 0.0492229 0.0747013 0.0492997 0 0.05 0.175 
0 0.075 0.15 0.0246963 0.0243663 0.150372 0.0246502 0.049646 0.17562 
0.0247079 0.0748706 0.175689 0.0491337 0.0240602 0.150628 0.0490448 0.0494222 0.175919 
0.0491182 0.0747052 0.175969 0 0.075 0.175 0 0.075 0.2 
0.0246561 0.0243654 0.175598 0.0243486 0.0244847 0.200959 0.0245283 0.0496533 0.200915 
0.0246291 0.074926 0.200995 0 0.1 0.025 0 0.125 0 
0.0246351 0.100052 -0.000962579 0 0.1 0.075 0 0.125 0.025 
0 0.125 0.05 0 0.125 0.075 0.0247175 0.100044 0.0243498 
0.0247379 0.125207 0.0243415 0.0492442 0.0999978 0.0239694 0.0492213 0.125349 0.0239969 
0 0.1 0.125 0 0.125 0.1 0.0491337 0.0492982 0.0999856 
0.0492098 0.0493073 0.12532 0.0492127 0.100007 0.0492725 0.0491184 0.100004 0.150728 
0.0492337 0.125336 0.0493064 0.0491686 0.125319 0.15069 0.0491385 0.150703 0.100007 
0.0491961 0.150679 0.125338 0.0975024 0.1 0.100001 0 0.1 0.175 
0 0.125 0.125 0 0.125 0.15 0 0.125 0.175 
0.0246946 0.100027 0.175671 0.0247166 0.125188 0.175678 0.0491878 0.0493455 0.150639 
0.0491426 0.0999947 0.176001 0.0491428 0.125312 0.175978 0.0492052 0.150665 0.150651 
0 0.125 0.2 0.0246291 0.100035 0.200991 0 0.15 0.025 
0 0.175 0 0 0.175 0.025 0.0245982 0.125174 -0.000960758 
0.0245914 0.15038 -0.00088153 0.0243628 0.175521 -0.000931259 0.0246458 0.175628 0.0244156 
0 0.15 0.075 0 0.175 0.05 0.0247002 0.150367 0.024387 
0.0246465 0.175633 0.0496687 0.0491555 0.150644 0.0240663 0.0490375 0.175913 0.0494236 
0.0491207 0.175952 0.0747162 0 0.15 0.125 0 0.175 0.075 
0 0.175 0.1 0 0.175 0.125 0.0246881 0.175671 0.0748442 
0.0247116 0.175664 0.100021 0.0247238 0.175665 0.125202 0.049204 0.150642 0.0493422 
0.0491537 0.175974 0.100002 0.0492012 0.176 0.12534 0 0.15 0.175 
0 0.175 0.15 0.0246908 0.15035 0.175646 0.0246998 0.175622 0.150369 
0.0491207 0.150603 0.175962 0.0491697 0.175959 0.150634 0 0.175 0.175 
0 0.175 0.2 0.0245905 0.125159 0.200996 0.0245864 0.150361 0.200913 
0.0246613 0.175618 0.175596 0.0243545 0.175505 0.200948 0 0.2 0.025 
0.0242028 0.200749 -0.00105011 0.0245349 0.200922 0.0244309 0 0.2 0.075 
0.0246283 0.200963 0.0496225 0 0.2 0.125 0.0245925 0.200993 0.0748003 
0.0246245 0.200955 0.100023 0.0246028 0.200977 0.125245 0 0.2 0.175 
0.0246484 0.200936 0.150399 0.0245493 0.2009 0.175575 0.0241953 0.200734 0.201063 
0.0486956 -0.00123968 0.0240889 0.0487645 0.0241045 -0.00126126 0.0730031 -0.00141733 -0.00133496 
0.073128 0.0238821 -0.0013986 0.0488876 -0.00125393 0.0747096 0.0489529 0.0241168 0.0240699 
0.073099 -0.00139651 0.0239413 0.0731766 -0.00143532 0.0492507 0.073232 -0.00147665 0.0745802 
0.0732487 0.0239041 0.0239169 0.0488987 -0.00126322 0.125301 0.0733019 -0.00150904 0.0999729 
0.0486943 -0.00124685 0.175941 0.0489647 0.0241134 0.175945 0.073251 -0.00152597 0.125358 
0.0731215 -0.00148897 0.150743 0.0730834 -0.00141515 0.176109 0.0732401 0.0239018 0.176124 
0.0487558 0.0241127 0.201283 0.0729817 -0.00141568 0.201386 0.0731136 0.0238924 0.201438 
0.0488979 0.074703 -0.00127829 0.0731692 0.0492425 -0.00145336 0.0489024 0.0747085 0.201268 
0.0731704 0.0492676 0.201482 0.048926 0.125303 -0.00128029 0.0732658 0.0745887 -0.00151754 
0.0732696 0.0999991 -0.00155528 0.0732643 0.125376 -0.00156303 0.0489212 0.12528 0.201279 
0.0732739 0.074619 0.201515 0.0732898 0.0999905 0.201512 0.0732868 0.125358 0.201526 
0.0487881 0.17595 -0.00124866 0.04899 0.175927 0.024089 0.0731982 0.150812 -0.00151138 
0.0489906 0.175906 0.175949 0.0487733 0.175911 0.201288 0.0732205 0.150755 0.201506 
0.0486778 0.201268 0.0241065 0.073137 0.176208 -0.00140641 0.0729901 0.201512 -0.00131277 
0.0488942 0.201248 0.0747285 0.0732739 0.17616 0.0239125 0.073093 0.201472 0.0239618 
0.0731559 0.201477 0.0492868 0.0732465 0.201482 0.0746269 0.0489135 0.201268 0.125301 
0.0733334 0.201508 0.100003 0.0486911 0.201258 0.175939 0.0732567 0.176124 0.176143 
0.0732781 0.201529 0.125372 0.0731533 0.201493 0.150753 0.0730905 0.201439 0.176116 
0.0731273 0.176142 0.20146 0.0729888 0.20145 0.201392 0.0975269 -0.001512 0.0238228 
0.0974909 0.0237819 -0.0015283 0.121989 -0.00141725 -0.00139826 0.121932 -0.00141482 0.0238845 
0.0975651 -0.00169084 0.0745547 0.09754 0.0237778 0.0237926 0.0975574 0.0491762 0.0237643 
0.121856 -0.00145153 0.0492344 0.121745 0.0492447 0.023843 0.0975305 -0.00173167 0.12538 
0.0975559 0.0491702 0.0491987 0.0975543 0.0491875 0.150809 0.121807 -0.00148772 0.074603 
0.121744 -0.00149278 0.100012 0.121789 -0.00156396 0.125398 0.121686 0.0492432 0.0492292 
0.121643 0.0492357 0.150821 0.145846 0.0493052 0.100027 0.14584 0.049326 0.125353 
0.0974599 -0.00151634 0.17618 0.0974663 0.0237822 0.176242 0.0975223 0.0492025 0.176264 
0.121718 -0.00142961 0.150768 0.121693 0.0492307 0.176204 0.0974752 0.0237813 0.201575 
0.121878 -0.00140963 0.176092 0.121964 -0.00143524 0.201374 0.0975336 0.0745522 -0.001683 
0.121879 0.0238832 -0.0014449 0.121816 0.0238953 0.0238636 0.121833 0.0492215 -0.00148092 
0.121769 0.0745846 -0.00151958 0.0975645 0.0745728 0.201714 0.121761 0.0238869 0.176143 
0.121851 0.0238672 0.20144 0.12184 0.0492018 0.201508 0.121807 0.0745748 0.201579 
0.0974902 0.125434 -0.00174113 0.0975517 0.150838 0.0492316 0.12172 0.0999748 -0.00153796 
0.121646 0.150799 0.0492718 0.145861 0.100022 0.0492666 0.14586 0.125324 0.0492975 
0.0975824 0.125429 0.201735 0.0975517 0.150815 0.150789 0.0975532 0.150825 0.176257 
0.121787 0.0999578 0.201613 0.121644 0.150805 0.150734 0.121703 0.150799 0.176156 
0.145837 0.1 0.150739 0.145832 0.099969 0.176042 0.14582 0.125304 0.150724 
0.145861 0.125272 0.176043 0.0974839 0.176282 -0.00156458 0.0975016 0.1763 0.0237792 
0.0975323 0.176285 0.0492037 0.121727 0.12542 -0.0014805 0.121681 0.150789 -0.00146185 
0.121837 0.176179 -0.0014039 0.121745 0.176165 0.0239055 0.121689 0.176194 0.049277 
0.1459 0.150645 0.0493717 0.097441 0.176217 0.176257 0.0974906 0.176229 0.2016 
0.121801 0.125385 0.201574 0.121787 0.150772 0.201508 0.12174 0.176162 0.176119 
0.121851 0.176144 0.201429 0.145953 0.150604 0.175972 0.0975005 0.2016 0.0238425 
0.12199 0.201491 -0.0013306 0.121921 0.201466 0.0239467 0.0975687 0.201711 0.0746009 
0.121824 0.201501 0.0492535 0.0975537 0.201718 0.125408 0.121834 0.201546 0.0746246 
0.121825 0.201593 0.100016 0.121797 0.20152 0.125409 0.145942 0.1507 0.100003 
0.14598 0.175996 0.100006 0.0974553 0.201536 0.176191 0.121722 0.201434 0.150772 
0.121874 0.201429 0.176083 0.121981 0.201453 0.201359 0.146311 -0.00133914 0.0240386 
0.146256 0.024035 -0.00135809 0.17081 -0.000781186 -0.00111862 0.170658 0.0244381 -0.00102488 
0.146069 -0.00133694 0.0747283 0.14608 0.0240291 0.0239812 0.145995 0.0493588 0.0239822 
0.170458 -0.000948837 0.0243853 0.170354 -0.000966273 0.049588 0.170406 -0.00102229 0.0747608 
0.170356 0.0243197 0.0243373 0.170333 0.0243353 0.0495722 0.170322 0.0242826 0.0748033 
[...]
POINT_DATA 1331
VECTORS displacement float
0 0 0
0 0 0
0 0 0
0 0 0
0 0 0
0 0 0
0 0 0
0 0 0
0 0 0
0 0 0
0 0 0
0 0 0
0 0 0
0 0 0
0 0 0
0 0 0
0 0 0
0 0 0
0 0 0
0 0 0
0 0 0
0 0 0
0 0 0
0 0 0
0 0 0
-0.00148374 -0.00123951 -0.00116911
-0.00122013 -0.001206 -0.000577213
-0.00105235 -0.00125813 6.42511e-06
-0.00116976 -0.00125171 0.000596152
-0.00150822 -0.00123345 0.00120465
-0.00115245 -0.000568004 -0.00125736
-0.00114384 -0.000558022 0.00125762
-0.00110245 2.42813e-05 -0.00126726
-0.00112219 3.80402e-06 0.00123122
-0.00108117 0.000612815 -0.00125738
-0.00108484 0.000576538 0.00126444
-0.00151166 0.0012779 -0.00116207
-0.00122193 0.00121301 -0.000559571
-0.0010366 0.00125175 1.39634e-05
-0.00114965 0.00125078 0.000587981
-0.00151834 0.00125485 0.00120519
-0.00251336 -0.00150853 -0.00145542
-0.00247103 -0.00166189 -0.00082165
-0.00241488 -0.00172978 -2.39699e-05
-0.00265481 -0.00167212 0.000774359
-0.00252774 -0.00151807 0.00148294
-0.002547 -0.00084761 -0.00160384
-0.00255534 -0.000824501 0.00167262
-0.0024681 -1.76356e-05 -0.0017513
-0.00237674 -1.07366e-06 0.00175383
-0.00258384 0.000862055 -0.00176574
-0.00252299 0.000820732 0.00173099
-0.00250671 0.0015838 -0.00145217
-0.0025331 0.00170046 -0.000783125
-0.00236303 0.00173128 1.96527e-05
-0.00261841 0.00166374 0.0007893
-0.00250582 0.00153621 0.00149678
-0.00350767 -0.00133171 -0.00122661
-0.00383322 -0.00135486 -0.000577571
-0.00400566 -0.00129632 3.79541e-05
-0.00386831 -0.00131705 0.000577979
-0.00353137 -0.00133978 0.00120562
-0.00383431 -0.000594474 -0.00140532
-0.00381848 -0.000611269 0.00141839
-0.00402615 2.21035e-05 -0.00137218
-0.00392937 1.03038e-05 0.00138108
-0.00401026 0.00060649 -0.00130555
-0.00387568 0.000596292 0.00128613
-0.00353107 0.00127769 -0.00119539
-0.00374985 0.00131094 -0.0005541
-0.00390212 0.00132753 1.13668e-05
-0.00380446 0.00134559 0.000556814
-0.0035256 0.0012821 0.00118266
-0.005 0 0
-0.005 0 0
-0.005 0 0
-0.005 0 0
-0.005 0 0
-0.005 0 0
-0.005 0 0
-0.005 0 0
-0.005 0 0
-0.005 0 0
-0.005 0 0
-0.005 0 0
-0.005 0 0
-0.005 0 0
-0.005 0 0
-0.005 0 0
-0.005 0 0
-0.005 0 0
-0.005 0 0
-0.005 0 0
-0.005 0 0
-0.005 0 0
-0.005 0 0
-0.005 0 0
-0.005 0 0
0 0 0
0 0 0
-0.00078984 -0.000750189 -0.00106525
-0.000460701 -0.000926656 -0.000587018
0 0 0
0 0 0
0 0 0
0 0 0
-0.000370708 -0.00097139 -0.000385015
0 0 0
0 0 0
-0.000409621 -0.00100324 -0.000209658
-0.000380262 -0.000963079 1.87625e-05
-0.000400088 -0.000977573 0.000243368
0 0 0
0 0 0
0 0 0
0 0 0
-0.000357848 -0.000954666 0.000398649
0 0 0
-0.000453351 -0.000914831 0.000585385
-0.000801427 -0.000741482 0.00107033
0 0 0
0 0 0
0 0 0
-0.00064671 -0.000525915 -0.000956347
-0.000357339 -0.000640666 -0.000595974
-0.000485433 -0.000348899 -0.000913223
-0.00036939 -5.90003e-05 -0.000993595
0 0 0
0 0 0
-0.000355279 -0.000644387 -0.000341393
-0.00036787 -0.000351746 -0.000625962
-0.000273926 -0.000107532 -0.000700335
-0.00100948 -0.000884645 -0.000593444
-0.000899353 -0.000948547 -0.000298385
-0.000985547 -0.000584245 -0.000909758
-0.000850158 -0.000293046 -0.000999128
0 0 0
0 0 0
0 0 0
0 0 0
-0.000317298 -0.000677083 -0.000161449
-0.000294094 -0.000670763 1.82113e-05
-0.000278625 -0.000660276 0.000201336
-0.000869115 -0.000974881 -2.10268e-05
-0.000806239 -0.000998114 0.000331038
-0.000777138 -0.0002987 -0.000700274
0 0 0
0 0 0
-0.00030372 -0.000633713 0.000371503
-0.000349757 -0.00035402 0.000619756
-0.00029213 -0.000129401 0.000688828
-0.000866332 -0.000939758 0.000627955
-0.000955167 -0.000577845 0.000918837
-0.000881764 -0.000294827 0.000969473
0 0 0
0 0 0
-0.000343873 -0.000634558 0.000597843
-0.000651417 -0.000515319 0.000958963
-0.000471686 -0.000346725 0.000914817
-0.000370929 -7.40231e-05 0.000994966
0 0 0
0 0 0
-0.000364852 5.15853e-05 -0.000962579
0 0 0
0 0 0
0 0 0
0 0 0
-0.000282542 4.44938e-05 -0.000650183
-0.000262051 0.000207416 -0.000658546
-0.000755823 -2.16457e-06 -0.0010306
-0.000778694 0.000348741 -0.00100307
0 0 0
0 0 0
-0.000866283 -0.000701807 -1.44077e-05
-0.000790171 -0.000692658 0.0003201
-0.000787346 7.17242e-06 -0.000727543
-0.000881566 3.62861e-06 0.000728326
-0.000766255 0.000336432 -0.00069363
-0.00083137 0.00031866 0.000689898
-0.000861478 0.000702519 6.96688e-06
-0.000803887 0.000678627 0.00033802
-0.00249763 3.09483e-07 5.45257e-07
0 0 0
0 0 0
0 0 0
0 0 0
-0.000305413 2.67887e-05 0.000671079
-0.000283372 0.000188451 0.000677764
-0.00081219 -0.000654548 0.000638771
-0.000857402 -5.28412e-06 0.00100126
-0.000857189 0.000312476 0.000978439
-0.000794766 0.000664779 0.00065117
0 0 0
-0.000370907 3.46469e-05 0.000991478
0 0 0
0 0 0
0 0 0
-0.000401776 0.000173708 -0.000960758
-0.00040857 0.000380328 -0.00088153
-0.000637217 0.000521308 -0.000931259
-0.000354214 0.000627512 -0.000584409
0 0 0
0 0 0
-0.00029982 0.000366512 -0.000613038
-0.000353504 0.00063293 -0.000331351
-0.000844532 0.000643531 -0.000933728
-0.000962477 0.000913434 -0.000576386
-0.000879297 0.000952298 -0.000283812
0 0 0
0 0 0
0 0 0
0 0 0
-0.000311942 0.000671109 -0.000155854
-0.000288387 0.000664207 2.06625e-05
-0.000276202 0.000664915 0.000201616
-0.000795996 0.000641956 -0.000657787
-0.000846289 0.000973821 2.14065e-06
-0.000798847 0.00100008 0.000340482
0 0 0
0 0 0
-0.000309176 0.000350251 0.00064581
-0.000300188 0.000621595 0.000368619
-0.000879337 0.00060333 0.000962108
-0.000830318 0.00095903 0.000633762
0 0 0
0 0 0
-0.000409463 0.000158959 0.00099579
-0.00041356 0.000360619 0.000913105
-0.000338683 0.000618499 0.000595638
-0.000645461 0.000505359 0.000948296
0 0 0
-0.00079719 0.000749081 -0.00105011
-0.000465126 0.0009218 -0.000569135
0 0 0
-0.000371687 0.000963454 -0.00037753
0 0 0
-0.00040748 0.000993198 -0.000199719
-0.000375531 0.000955298 2.28642e-05
-0.000397152 0.000976851 0.000245066
0 0 0
-0.000351601 0.000936356 0.00039946
-0.000450688 0.000899693 0.000575114
-0.000804735 0.00073363 0.00106259
-0.00130441 -0.00123968 -0.000911139
-0.00123546 -0.000895545 -0.00126126
-0.00199694 -0.00141733 -0.00133496
-0.00187205 -0.00111787 -0.0013986
-0.00111245 -0.00125393 -0.00029036
-0.00104708 -0.00088318 -0.000930109
-0.00190105 -0.00139651 -0.00105874
-0.00182337 -0.00143532 -0.000749252
-0.00176801 -0.00147665 -0.000419797
-0.00175132 -0.00109593 -0.00108306
-0.00110134 -0.00126322 0.000301385
-0.00169808 -0.00150904 -2.71032e-05
-0.0013057 -0.00124685 0.000941085
-0.00103531 -0.000886629 0.000945422
-0.00174897 -0.00152597 0.000357954
-0.00187851 -0.00148897 0.000742765
-0.0019166 -0.00141515 0.00110879
-0.00175987 -0.0010982 0.00112408
-0.00124417 -0.000887309 0.00128257
-0.00201826 -0.00141568 0.0013864
-0.0018864 -0.00110755 0.00143839
-0.00110205 -0.000296961 -0.00127829
-0.0018308 -0.000757513 -0.00145336
-0.00109756 -0.000291547 0.00126832
-0.00182959 -0.000732405 0.00148185
-0.00107395 0.000302517 -0.00128029
-0.00173423 -0.000411293 -0.00151754
-0.00173037 -8.71058e-07 -0.00155528
-0.00173566 0.000376159 -0.00156303
-0.00107884 0.000280478 0.00127873
-0.00172607 -0.000380991 0.00151494
-0.0017102 -9.5327e-06 0.00151153
-0.00171323 0.000358319 0.0015259
-0.00121186 0.00094993 -0.00124866
-0.00100999 0.000927068 -0.000911032
-0.00180183 0.000811599 -0.00151138
-0.00100939 0.000906019 0.000948582
-0.00122667 0.000910926 0.00128806
-0.00177954 0.000754946 0.00150598
-0.00132222 0.001268 -0.000893484
-0.00186301 0.00120847 -0.00140641
-0.00200985 0.00151208 -0.00131277
-0.0011058 0.00124849 -0.000271477
-0.0017261 0.00116042 -0.00108749
-0.00190698 0.00147153 -0.00103821
-0.00184408 0.0014769 -0.000713235
-0.00175348 0.00148234 -0.000373101
-0.00108648 0.00126773 0.000301315
-0.00166659 0.00150805 2.51294e-06
-0.00130894 0.00125847 0.000939086
-0.00174334 0.00112374 0.00114293
-0.0017219 0.00152942 0.000371981
-0.00184672 0.00149311 0.000752574
-0.00190949 0.00143879 0.0011163
-0.0018727 0.00114221 0.00145993
-0.00201119 0.00145039 0.00139164
-0.00247311 -0.001512 -0.00117721
-0.0025091 -0.00121805 -0.0015283
-0.00301138 -0.00141725 -0.00139826
-0.00306825 -0.00141482 -0.0011155
-0.0024349 -0.00169084 -0.000445341
-0.00246004 -0.00122216 -0.00120742
-0.00244262 -0.000823772 -0.00123574
-0.00314423 -0.00145153 -0.000765639
-0.00325485 -0.000755273 -0.00115703
-0.00246953 -0.00173167 0.000380266
-0.00244407 -0.000829754 -0.000801261
-0.00244573 -0.00081251 0.0008091
-0.00319289 -0.00148772 -0.000396965
-0.00325593 -0.00149278 1.20094e-05
-0.0032113 -0.00156396 0.000398142
-0.00331386 -0.000756772 -0.000770765
-0.00335689 -0.000764341 0.000821295
-0.00415357 -0.000694821 2.65818e-05
-0.00415985 -0.000674042 0.000352823
-0.00254006 -0.00151634 0.00118035
-0.0025337 -0.00121777 0.00124247
-0.00247769 -0.000797501 0.00126413
-0.00328238 -0.00142961 0.000767896
-0.00330694 -0.000769261 0.00120362
-0.00252476 -0.00121869 0.00157474
-0.00312152 -0.00140963 0.00109231
-0.00303644 -0.00143524 0.0013739
-0.00246636 -0.000447823 -0.001683
-0.00312102 -0.00111685 -0.0014449
-0.00318357 -0.00110471 -0.0011364
-0.00316658 -0.000778504 -0.00148092
-0.00323126 -0.000415371 -0.00151958
-0.00243549 -0.000427233 0.00171394
-0.0032387 -0.00111306 0.00114275
-0.00314851 -0.00113282 0.00144033
-0.00315993 -0.000798151 0.00150818
-0.00319292 -0.000425246 0.00157935
-0.00250984 0.000434403 -0.00174113
-0.00244829 0.000837731 -0.000768437
-0.00328002 -2.52283e-05 -0.00153796
-0.00335367 0.000799441 -0.000728191
-0.00413929 2.20959e-05 -0.000733425
-0.00413999 0.000324078 -0.000702524
-0.00241764 0.00042949 0.00173546
-0.00244827 0.000814732 0.000788547
-0.00244682 0.000825024 0.0012571
-0.0032127 -4.2195e-05 0.00161337
-0.00335571 0.000804801 0.000733584
-0.00329668 0.000798673 0.00115592
-0.00416302 4.32512e-07 0.000738641
-0.00416822 -3.10245e-05 0.00104248
-0.00417971 0.000304293 0.000723517
-0.00413882 0.000272485 0.00104271
-0.00251612 0.00128233 -0.00156458
-0.00249842 0.0012999 -0.00122081
-0.00246768 0.00128504 -0.000796282
-0.00327273 0.000419511 -0.0014805
-0.00331883 0.000788697 -0.00146185
-0.00316311 0.00117859 -0.0014039
-0.00325522 0.00116477 -0.00109453
-0.00331132 0.00119361 -0.000722989
-0.00410018 0.000645113 -0.000628281
-0.00255897 0.0012166 0.00125683
-0.00250943 0.00122882 0.0016001
-0.00319948 0.000385183 0.0015737
-0.0032129 0.000772065 0.00150847
-0.00326002 0.00116218 0.0011186
-0.00314937 0.00114365 0.00142853
-0.00404721 0.000603899 0.000972382
-0.0024995 0.00160005 -0.00115751
-0.00301005 0.0014913 -0.0013306
-0.00307878 0.0014656 -0.00105327
-0.00243126 0.00171078 -0.000399093
-0.00317571 0.00150099 -0.000746523
-0.00244631 0.00171815 0.000407526
-0.00316559 0.00154625 -0.000375441
-0.00317453 0.00159312 1.59078e-05
-0.00320302 0.00152023 0.000409148
-0.00405826 0.000700109 3.40525e-06
-0.00401973 0.000996321 5.74097e-06
-0.00254466 0.00153606 0.00119137
-0.00327827 0.00143422 0.000771701
-0.0031263 0.00142901 0.001083
-0.00301936 0.00145329 0.00135935
-0.00368902 -0.00133914 -0.000961396
-0.0037441 -0.000964976 -0.00135809
-0.00419043 -0.000781186 -0.00111862
-0.00434203 -0.000561944 -0.00102488
-0.00393081 -0.00133694 -0.000271726
-0.00391966 -0.000970897 -0.00101882
-0.00400458 -0.000641201 -0.00101775
-0.00454244 -0.000948837 -0.000614672
-0.00464609 -0.000966273 -0.000411963
-0.00459392 -0.00102229 -0.000239241
-0.00464352 -0.000680267 -0.000662683
-0.00466673 -0.000664728 -0.000427788
-0.00467788 -0.000717404 -0.000196715
-0.00468256 -0.000411349 -0.000433268
-0.00470701 -0.000450037 -0.000201154
-0.00394573 -0.00133734 0.000322934
-0.00407867 -0.000646979 -0.000656661
-0.00462243 -0.00100153 1.17877e-05
-0.00470308 -0.000739108 6.05732e-06
-0.0047305 -0.000516552 -5.17795e-07
-0.00472827 -0.00053526 0.000182825
-0.00371706 -0.00132888 0.000945489
-0.00394716 -0.000972058 0.00102175
-0.00402634 -0.000653651 0.00102887
-0.0045925 -0.00104243 0.000250863
-0.00465722 -0.000960254 0.000415903
-0.00455105 -0.000947136 0.000605018
-0.00469046 -0.000739643 0.000205471
-0.00468288 -0.000662685 0.000427717
-0.00465184 -0.000681833 0.000654113
-0.00470772 -0.000413161 0.000429964
-0.00375812 -0.000985424 0.00135012
-0.00420206 -0.000787321 0.00109928
-0.00434951 -0.00057365 0.00101118
-0.00392852 -0.000274954 -0.001395
-0.00454832 -0.000381713 -0.000969721
-0.00466144 -0.000384743 -0.000700013
-0.0046877 -0.00017897 -0.000706445
-0.00388266 -0.000289761 0.00141174
-0.00467171 -0.000395451 0.000681777
-0.00454539 -0.000397524 0.000951039
-0.00469164 -0.000184883 0.000673649
-0.0040152 0.000350364 -0.00134361
-0.00459234 -0.000139026 -0.00104039
-0.00466634 -1.30035e-05 -0.00102271
-0.00471341 -9.68131e-06 -0.000771224
-0.00471631 2.11863e-05 -0.000540731
-0.00466688 0.000108733 -0.00104062
-0.00471429 0.000187017 -0.000799807
-0.00473235 0.000191369 -0.000599766
-0.00389171 0.000329621 0.00134121
-0.00458171 -0.000139884 0.00100513
-0.00468678 1.32692e-05 0.00068591
-0.00464023 -2.77222e-05 0.00099599
-0.00472596 0.000131328 0.000733972
-0.00463222 7.30512e-05 0.00102595
-0.00381091 0.00093112 -0.00128442
-0.00397195 0.000936918 -0.000959772
-0.00403229 0.000966966 -0.000612475
-0.00458089 0.000385602 -0.000974577
-0.00466659 0.000409971 -0.000724663
-0.00468471 0.000418022 -0.000494497
-0.0039691 0.000937266 0.000958826
-0.00377859 0.000927603 0.00129145
-0.0046573 0.000357416 0.000667296
-0.00453177 0.000350477 0.000950701
-0.00367788 0.00128963 -0.000919583
-0.00437587 0.000553772 -0.00101418
-0.00421282 0.000761279 -0.00112178
-0.00384434 0.00132805 -0.00026451
-0.00464425 0.000668456 -0.000671922
-0.00466829 0.000668502 -0.000444222
-0.00467316 0.00066719 -0.000231654
-0.00453241 0.0009502 -0.000637957
-0.00461939 0.00100568 -0.000415527
-0.00457529 0.00100895 -0.000247219
-0.00386365 0.00137707 0.000261471
-0.00461404 0.000641196 -2.97121e-07
-0.00458239 0.000968779 4.90578e-06
-0.00369748 0.001284 0.000921688
-0.00466834 0.000614666 0.000216648
-0.00466349 0.000624044 0.000445917
-0.0046558 0.000650595 0.000650013
-0.00458841 0.000962822 0.000260687
-0.00463868 0.00095142 0.000402631
-0.00454456 0.000926334 0.000613093
-0.00436571 0.000535158 0.000998336
-0.00420768 0.000751863 0.00109943
-0.005 0 0
-0.005 0 0
-0.005 0 0
-0.005 0 0
-0.005 0 0
-0.005 0 0
-0.005 0 0
-0.005 0 0
-0.005 0 0
-0.005 0 0
-0.005 0 0
-0.005 0 0
-0.005 0 0
-0.005 0 0
-0.005 0 0
-0.005 0 0
-0.005 0 0
-0.005 0 0
-0.005 0 0
-0.005 0 0
-0.005 0 0
-0.005 0 0
-0.005 0 0
-0.005 0 0
-0.005 0 0
-0.005 0 0
-0.005 0 0
-0.005 0 0
-0.005 0 0
-0.005 0 0
-0.005 0 0
-0.005 0 0
-0.005 0 0
-0.005 0 0
-0.005 0 0
-0.005 0 0
-0.005 0 0
-0.005 0 0
-0.005 0 0
-0.005 0 0
-0.005 0 0
-0.005 0 0
-0.005 0 0
-0.005 0 0
-0.005 0 0
-0.005 0 0
-0.005 0 0
-0.005 0 0
-0.005 0 0
-0.005 0 0
-0.005 0 0
-0.005 0 0
-0.005 0 0
-0.005 0 0
-0.005 0 0
-0.005 0 0
-0.00416345 0.00104591 -0.000981236
-0.00453316 0.000446019 -0.000854905
-0.0021329 -0.00148613 0.00102601
-0.00476427 0.000795059 -0.00036589
-0.005 0 0
-0.00479244 0.000551865 -0.000551038
0 0 0
-0.005 0 0
0 0 0
-0.00148513 0.00141541 -0.000220581
-0.005 0 0
-0.00457356 -3.36495e-05 0.000592046
-0.0017441 0.00141617 -0.00108754
-0.00210873 0.0013693 -0.00141942
-0.005 0 0
-0.00433593 -0.000282578 0.00115855
-0.00483559 -0.00016143 0.000570779
-0.000830715 -0.00101832 -0.000928468
-0.000470246 -0.000437168 -0.000813369
-0.00195045 -0.000302782 -0.00160228
-0.00336655 -0.000958156 -0.00142457
-0.00211287 -0.00127171 -0.00141426
-0.00173331 -0.0013455 -0.00111023
-0.000611595 0.001106 0.000171956
-0.000166285 -0.000402563 -0.000368011
-0.00161886 -0.0009369 -0.00136499
-0.00161288 -0.00114748 -0.00113632
0 0 0
-0.00484233 -8.84776e-05 0.000599259
-0.005 0 0
-0.00478311 -0.000100819 0.000819394
-0.000748696 0.000605398 -0.0010641
0 0 0
-0.000207628 -0.000537569 -0.000507427
-0.00022961 -0.000768163 -0.000327279
-0.000170793 -0.000568309 -0.000357249
-0.00209917 0.00152618 -0.00097674
-0.00204874 0.00132585 -0.00123202
-0.000395097 -0.000291457 -0.000541864
-0.005 0 0
-0.000491056 -0.000663676 -0.000135161
0 0 0
-0.000211235 0.000116731 -0.000789178
0 0 0
-0.00345478 0.000980368 -0.00137544
-0.00410691 0.00063439 0.000444831
-0.00201287 -0.00159124 0.000486522
-0.00423027 0.000601146 0.00112623
-0.00328005 0.00137655 0.00112884
-0.00290386 0.00129944 0.00144761
-0.00199284 0.00132429 -0.00100274
-0.000646537 -0.000264355 -0.00111846
-0.000216821 -0.000250033 -0.000530857
-0.000760391 0.000582613 0.00108572
0 0 0
-0.000223509 -0.000754284 0.00032776
0 0 0
-0.000162642 -0.000556968 0.000354407
-0.005 0 0
-0.000669732 0.000801179 -0.000875586
-0.00084437 0.00102469 -0.000908957
-0.000466238 0.00042977 -0.00079629
-0.000207165 0.000526014 -0.000494205
-0.000229295 0.000754216 -0.00031613
-0.000170068 0.00054821 -0.000347718
0 0 0
0 0 0
-0.000165088 0.00026482 -0.000513499
-0.000161194 0.000381547 -0.000361857
-0.00056429 0.000635249 -0.000829565
0 0 0
0 0 0
-0.000162874 -0.000113512 -0.000588097
0 0 0
-0.0001503 -2.81653e-05 -0.000595023
-0.000152876 3.75221e-05 -0.000572826
-0.000208158 -3.51989e-05 -0.000798915
0 0 0
-0.00021746 0.000109408 0.000826806
-0.00207718 -0.00145868 -0.00100409
-0.00198662 -0.00126652 -0.00101216
-0.00204809 -0.00125027 -0.00122528
-0.000471901 0.000416809 0.000799826
-0.000664975 0.000787085 0.000895888
-0.000840752 0.00100703 0.000928883
-0.00345254 0.000502784 0.00148236
0 0 0
-0.000166199 0.000568725 -0.000251839
0 0 0
-0.000168845 0.000621927 -0.000156262
-0.000225626 0.000816328 -0.00021412
-0.00485875 6.31261e-05 0.00047502
0 0 0
-0.000226653 -0.000824399 -0.00022197
-0.0012886 0.00100576 0.000230191
-0.000613592 0.000281408 0.00112729
-0.000157839 0.000158587 0.000583306
-0.0001577 9.5093e-05 0.000611361
-0.000617322 -0.00112261 -0.00013475
-0.000162715 -0.000606464 -7.25186e-05
-0.000636708 -0.000271464 0.00112122
0 0 0
-0.000154531 0.000576608 0.000110994
-0.00021468 0.000779025 0.000244898
0 0 0
-0.000154619 0.00058508 0.00018684
-0.000141971 0.000434125 0.000168328
-0.00015171 0.000538098 0.000267958
-0.000904297 -0.00105862 -0.000188888
-0.00150091 -0.00141685 -0.000254642
-0.000493659 -0.000894283 -0.00013648
-0.000615294 0.000306117 -0.00109608
-0.000153269 0.000168372 -0.00054974
-0.000151551 0.000103898 -0.000579153
-0.000564016 0.000617944 0.000849355
-0.000167227 0.000256176 0.000539709
-0.00048731 0.000616861 0.000662057
-0.000152162 0.000375946 0.000369822
0 0 0
-0.000201292 0.000509765 0.000492339
-0.000219958 0.000733998 0.000322293
-0.000159645 0.000534316 0.000351156
-0.000157109 -0.000397991 0.000367944
-0.000205296 -0.000253403 0.000526029
-0.00020352 -0.000524473 0.000499613
-0.00047515 -0.0004269 0.000809361
-0.000836093 -0.00101206 0.00093767
-0.00483738 0.000545894 0.000299319
-0.005 0 0
-0.000387353 0.000581794 0.000190725
0 0 0
-0.00038638 0.000404545 0.000377578
-0.00441976 0.000631296 0.000902872
-0.00483544 0.000401526 0.000434314
-0.000786394 -0.000583208 -0.00108792
-0.000597161 -0.000615876 -0.00085257
-0.00114093 -0.000986376 -0.00105576
-0.000676198 -0.00079556 -0.000898006
-0.00328841 -0.00137405 0.00114879
-0.00291032 -0.00127761 0.00144591
-0.00413136 1.69497e-05 -0.000923026
-0.000162847 -0.000129291 0.000593481
-0.000155077 -5.44196e-05 0.000447305
0 0 0
-0.00479181 -9.53155e-05 -0.000843815
-0.005 0 0
-0.000869105 -0.000166764 -0.00112227
-0.000358949 -0.000124995 -0.000750555
-0.000136427 -3.88736e-05 -0.000445444
-0.0010014 0.0010083 -0.000572064
-0.00198793 0.00156578 -0.000518507
-0.00151726 -0.000476414 0.0014295
-0.000510225 -0.000268814 0.000898286
0 0 0
-0.000167112 -0.000449186 -0.000128499
-0.000166722 -0.000579414 -0.000257394
-0.00016922 -0.000627241 -0.000160648
-0.005 0 0
-0.005 0 0
-0.0047679 0.000816811 -0.000258731
-0.000616295 -0.00110608 0.000171278
-0.00015897 -0.000577606 1.91971e-05
-0.00174869 -0.0013533 0.0011593
-0.00206945 -0.00125245 0.00127717
-0.00212938 -0.00127061 0.00146304
-0.000154998 -0.000551981 0.000267457
0 0 0
-0.00162217 -0.00115041 0.00117816
-0.00162962 -0.000921729 0.00139769
-0.000939813 -0.000380956 0.00106166
-0.000900285 -0.00018044 0.0010789
-0.00193397 -0.000270344 0.00159669
-0.000979955 -0.000577584 0.00102253
-0.00151567 -0.000917208 0.00118649