# vtk DataFile Version 3.0
vtk output at time 0.4
ASCII
DATASET UNSTRUCTURED_GRID
POINTS 1331 float
0 0 0 0 0 0.05 0 0 0.1 
0 0 0.15 0 0 0.2 0 0.05 0 
0 0.05 0.05 0 0.05 0.1 0 0.05 0.15 
0 0.05 0.2 0 0.1 0 0 0.1 0.05 
0 0.1 0.1 0 0.1 0.15 0 0.1 0.2 
0 0.15 0 0 0.15 0.05 0 0.15 0.1 
0 0.15 0.15 0 0.15 0.2 0 0.2 0 
0 0.2 0.05 0 0.2 0.1 0 0.2 0.15 
0 0.2 0.2 0.0438497 -0.00455578 -0.00437241 0.0449744 -0.00441275 0.047818 
0.0457585 -0.0046112 0.100037 0.0452072 -0.00459015 0.15224 0.0437404 -0.00456174 0.204484 
0.0452849 0.0478935 -0.00463515 0.0453243 0.0478945 0.204637 0.0455542 0.100123 -0.0046006 
0.0454369 0.100018 0.204498 0.0456223 0.152305 -0.004615 0.0455761 0.152175 0.204681 
0.0437386 0.204712 -0.0043117 0.0449817 0.204443 0.0479008 0.045826 0.204589 0.100072 
0.0452901 0.204588 0.152221 0.0436937 0.204642 0.204484 0.0899546 -0.00563873 -0.00541293 
0.0901463 -0.00618454 0.0469009 0.0903712 -0.00636076 0.0998967 0.0894023 -0.00621433 0.152936 
0.089887 -0.00568008 0.205546 0.0898309 0.0468015 -0.00594021 0.0897867 0.046889 0.206229 
0.0901692 0.099935 -0.00641809 0.0905213 0.0999853 0.206471 0.0896879 0.153279 -0.00650487 
0.0899127 0.153101 0.206434 0.0899877 0.205946 -0.00540664 0.0899043 0.206351 0.0470642 
0.0905949 0.206399 0.100079 0.0895372 0.206182 0.153015 0.0899767 0.205746 0.205623 
0.136205 -0.00496927 -0.00460242 0.134874 -0.00498927 0.0477835 0.134092 -0.00477185 0.100153 
0.134703 -0.00483879 0.152226 0.13611 -0.00499837 0.204521 0.13481 0.047741 -0.00524015 
0.134871 0.0476728 0.205266 0.13402 0.100097 -0.00505968 0.134376 0.100034 0.205071 
0.134111 0.152303 -0.00487469 0.134606 0.152232 0.204783 0.136094 0.204728 -0.00449044 
0.135208 0.204788 0.0478743 0.134483 0.204849 0.100053 0.134963 0.204952 0.152145 
0.136135 0.204742 0.204453 0.18 0 0 0.18 0 0.05 
0.18 0 0.1 0.18 0 0.15 0.18 0 0.2 
0.18 0.05 0 0.18 0.05 0.05 0.18 0.05 0.1 
0.18 0.05 0.15 0.18 0.05 0.2 0.18 0.1 0 
0.18 0.1 0.05 0.18 0.1 0.1 0.18 0.1 0.15 
0.18 0.1 0.2 0.18 0.15 0 0.18 0.15 0.05 
0.18 0.15 0.1 0.18 0.15 0.15 0.18 0.15 0.2 
0.18 0.2 0 0.18 0.2 0.05 0.18 0.2 0.1 
0.18 0.2 0.15 0.18 0.2 0.2 0 0 0.025 
0 0.025 0 0.0215507 -0.00276332 -0.00391496 0.0229739 -0.00343707 0.0227682 
0 0 0.075 0 0.025 0.025 0 0.025 0.05 
0 0.025 0.075 0.0233535 -0.00355215 0.0485267 0 0 0.125 
0 0.025 0.1 0.0232231 -0.00365125 0.0741889 0.0233591 -0.00348975 0.100076 
0.0232837 -0.00355035 0.125941 0 0 0.175 0 0.025 0.125 
0 0.025 0.15 0 0.025 0.175 0.0234215 -0.00349455 0.15152 
0 0.025 0.2 0.0230181 -0.00340378 0.177216 0.0214988 -0.00274511 0.203925 
0 0.05 0.025 0 0.075 0 0 0.075 0.025 
0.0222175 0.0230111 -0.00352446 0.0234432 0.022575 0.0227713 0.022897 0.0487005 -0.00332449 
0.0234131 0.0748222 -0.00361462 0 0.05 0.075 0 0.075 0.05 
0.0235122 0.0226102 0.0487124 0.0234543 0.048694 0.0226802 0.0238495 0.0746227 0.0224201 
0.0459106 0.0217198 0.047773 0.0463732 0.0215018 0.0738778 0.0460007 0.0478252 0.0216257 
0.0466173 0.0739338 0.0212991 0 0.05 0.125 0 0.075 0.075 
0 0.075 0.1 0 0.075 0.125 0.0236617 0.0224891 0.0743739 
0.0237858 0.0225362 0.100071 0.0238196 0.0225705 0.125761 0.0465125 0.0214165 0.0999192 
0.0467946 0.0213029 0.126261 0.0469647 0.0739151 0.047361 0 0.05 0.175 
0 0.075 0.15 0.0237214 0.0226454 0.151399 0.0235367 0.0486629 0.177295 
0.0237734 0.0745188 0.177546 0.046522 0.0214946 0.152356 0.0461433 0.0478125 0.178412 
0.0464552 0.0738839 0.178592 0 0.075 0.175 0 0.075 0.2 
0.0235087 0.0225885 0.177234 0.0222012 0.023036 0.203529 0.0229605 0.0486855 0.203331 
0.0233912 0.0747399 0.203628 0 0.1 0.025 0 0.125 0 
0.0234409 0.100221 -0.00348883 0 0.1 0.075 0 0.125 0.025 
0 0.125 0.05 0 0.125 0.075 0.0238339 0.100195 0.0226272 
0.0239141 0.125786 0.0225841 0.0469961 0.100006 0.0212222 0.0469205 0.126335 0.0213138 
0 0.1 0.125 0 0.125 0.1 0.0465882 0.047388 0.0999468 
0.0469203 0.0473934 0.126226 0.0469301 0.100027 0.0473103 0.0465146 0.10001 0.152723 
0.0470331 0.12629 0.0474129 0.046728 0.126212 0.152601 0.0466086 0.152626 0.100035 
0.046853 0.152555 0.126304 0.0900449 0.100003 0.100014 0 0.1 0.175 
0 0.125 0.125 0 0.125 0.15 0 0.125 0.175 
0.0237346 0.100114 0.177478 0.0238204 0.125719 0.177521 0.0467997 0.0475032 0.152387 
0.0465562 0.0999734 0.178695 0.0465617 0.126195 0.17863 0.0468802 0.15254 0.152442 
0 0.125 0.2 0.0233873 0.10014 0.203611 0 0.15 0.025 
0 0.175 0 0 0.175 0.025 0.0232952 0.125656 -0.00349829 
0.0232623 0.151439 -0.00321833 0.0222829 0.176961 -0.00342141 0.0234637 0.177364 0.0228164 
0 0.15 0.075 0 0.175 0.05 0.0237525 0.151376 0.0227355 
0.0235278 0.177347 0.0487535 0.0466159 0.152415 0.0215457 0.0461368 0.178401 0.0478395 
0.046472 0.178524 0.0739358 0 0.15 0.125 0 0.175 0.075 
0 0.175 0.1 0 0.175 0.125 0.0236896 0.177484 0.0743966 
0.0238094 0.177437 0.100082 0.0238293 0.177449 0.125768 0.0468712 0.152405 0.0475211 
0.046614 0.178589 0.100014 0.0468235 0.178711 0.126309 0 0.15 0.175 
0 0.175 0.15 0.0237064 0.151319 0.177412 0.0237365 0.177304 0.151396 
0.0464561 0.152281 0.178591 0.0466673 0.178579 0.152397 0 0.175 0.175 
0 0.175 0.2 0.023232 0.125592 0.203654 0.023218 0.151367 0.203362 
0.0235323 0.177334 0.177241 0.0222336 0.17691 0.2035 0 0.2 0.025 
0.0215364 0.202749 -0.00384599 0.0229704 0.203409 0.022843 0 0.2 0.075 
0.0233589 0.203521 0.0485597 0 0.2 0.125 0.0232396 0.20361 0.0742303 
0.0233811 0.203458 0.100094 0.023294 0.203548 0.125952 0 0.2 0.175 
0.0234528 0.203421 0.151533 0.0230399 0.203334 0.177189 0.0214894 0.2027 0.203905 
0.0445724 -0.00454196 0.0215671 0.0448912 0.0216852 -0.00467027 0.0668966 -0.00525355 -0.0049445 
0.0674231 0.0208367 -0.00517163 0.0454511 -0.00458075 0.0739227 0.0456861 0.0217222 0.0215239 
0.0672866 -0.00516759 0.0210532 0.0676492 -0.0052963 0.0471823 0.0678895 -0.00542472 0.073423 
0.0679401 0.0209098 0.0209647 0.0455241 -0.00460901 0.126132 0.0682027 -0.00552771 0.0999025 
0.0445771 -0.00458745 0.178527 0.0457501 0.021684 0.178528 0.0679999 -0.00561009 0.12635 
0.0674513 -0.00549492 0.15279 0.0672339 -0.00525203 0.179133 0.0679166 0.0208819 0.179195 
0.0448569 0.0216845 0.204746 0.0668035 -0.00527001 0.205139 0.0673622 0.0208519 0.205329 
0.0455009 0.0739061 -0.00466708 0.067626 0.047172 -0.00535973 0.0455051 0.0738935 0.204642 
0.0676283 0.0472384 0.205477 0.0456587 0.126146 -0.00466027 0.0680426 0.0734751 -0.00557574 
0.0680955 0.100015 -0.00567728 0.0680755 0.126439 -0.00571386 0.0456016 0.126051 0.204693 
0.0680647 0.0735622 0.205584 0.0681402 0.0999577 0.205547 0.0681322 0.12635 0.205623 
0.0450183 0.178542 -0.0046075 0.0458688 0.178456 0.0216095 0.0677793 0.153051 -0.00554679 
0.0458668 0.178385 0.178555 0.0449359 0.178405 0.20478 0.0678377 0.15284 0.205575 
0.0445156 0.204647 0.0216601 0.0674792 0.179524 -0.00518472 0.0668472 0.205627 -0.0048414 
0.0454918 0.204564 0.0740022 0.0680774 0.179351 0.0209584 0.0672816 0.205463 0.0211444 
0.0675827 0.205464 0.0473325 0.0679643 0.205461 0.0736073 0.045584 0.20463 0.12614 
0.0683387 0.205539 0.100025 0.044569 0.204623 0.178525 0.0679954 0.179211 0.179282 
0.068108 0.205633 0.126418 0.0675743 0.205511 0.152846 0.0672708 0.205336 0.179183 
0.0674188 0.179274 0.205425 0.0668312 0.205393 0.205177 0.0901266 -0.00563614 0.0205814 
0.0899768 0.0204279 -0.00567818 0.113075 -0.00526264 -0.00519263 0.11287 -0.00523584 0.0208383 
0.0902905 -0.00626168 0.0733137 0.0901847 0.0204101 0.0204834 0.0902527 0.0468929 0.0203913 
0.112535 -0.00534826 0.0471175 0.112042 0.047168 0.0206942 0.0901617 -0.00640883 0.12644 
0.0902512 0.0468818 0.0470048 0.0902518 0.0469468 0.153043 0.11232 -0.00546191 0.0734971 
0.112042 -0.00546749 0.10004 0.11223 -0.00573684 0.126508 0.111778 0.0471719 0.0471088 
0.111587 0.0471337 0.153093 0.133403 0.0474137 0.10011 0.133372 0.0474748 0.126332 
0.0898441 -0.00566535 0.179444 0.0898723 0.020427 0.179664 0.0901105 0.0469922 0.179737 
0.111953 -0.00528674 0.152903 0.111815 0.0471026 0.179496 0.0899039 0.0204209 0.205875 
0.112629 -0.00523563 0.179086 0.112969 -0.00534367 0.205106 0.090162 0.0733044 -0.00620652 
0.112627 0.0208332 -0.00535377 0.112373 0.0208768 0.0207651 0.112429 0.0470833 -0.00547278 
0.112149 0.0734399 -0.00558961 0.0902793 0.0733772 0.206357 0.112122 0.0208315 0.179272 
0.112507 0.0207578 0.205342 0.112449 0.0469961 0.205584 0.112291 0.0733907 0.205832 
0.0899924 0.126646 -0.00640663 0.090262 0.153163 0.0471292 0.111943 0.0999108 -0.00564468 
0.11162 0.153004 0.0472637 0.133463 0.100085 0.0472595 0.133475 0.126214 0.0473628 
0.0903544 0.126618 0.20643 0.0902306 0.153068 0.152973 0.0902464 0.15311 0.179711 
0.112193 0.0998428 0.205944 0.111575 0.153021 0.152783 0.111847 0.153007 0.179346 
0.133316 0.100007 0.152778 0.133326 0.0998761 0.178876 0.133231 0.126122 0.152773 
0.133455 0.126018 0.178903 0.0899592 0.179837 -0.00581187 0.090046 0.179901 0.0204462 
0.0901791 0.179836 0.0470188 0.111974 0.126589 -0.00545774 0.111807 0.152986 -0.00539625 
0.112453 0.179415 -0.00519136 0.112075 0.179362 0.0209248 0.111817 0.179455 0.0472784 
0.133643 0.152417 0.0476146 0.0897767 0.179559 0.179732 0.0899665 0.179615 0.205989 
0.11224 0.126438 0.205838 0.112206 0.152897 0.205611 0.112043 0.179346 0.179214 
0.112504 0.17928 0.205332 0.133842 0.152271 0.178663 0.0900334 0.205989 0.0206595 
0.113094 0.205565 -0.00492174 0.11284 0.205441 0.0210785 0.090321 0.206362 0.0735013 
0.112413 0.205562 0.0472011 0.0902507 0.206373 0.126564 0.112429 0.205714 0.0735927 
0.112363 0.205859 0.100071 0.112254 0.205609 0.12657 0.133761 0.152617 0.100022 
0.133973 0.178675 0.100032 0.0898308 0.205732 0.179511 0.111964 0.20531 0.152935 
0.112619 0.205297 0.179075 0.113047 0.205408 0.205073 0.135493 -0.00495871 0.0213543 
0.135225 0.021361 -0.00507543 0.158578 -0.0029119 -0.00416936 0.15787 0.0228198 -0.00384924 
0.134428 -0.00492602 0.0739632 0.134494 0.0213534 0.0211539 0.134092 0.0475693 0.0211795 
0.15705 -0.00355733 0.0225951 0.156605 -0.00358889 0.0483671 0.156797 -0.00378013 0.0740516 
0.156599 0.0223932 0.0224352 0.156421 0.0224717 0.0483208 0.156362 0.0222735 0.0742099 
[...]
POINT_DATA 1331
VECTORS displacement float
0 0 0
0 0 0
0 0 0
0 0 0
0 0 0
0 0 0
0 0 0
0 0 0
0 0 0
0 0 0
0 0 0
0 0 0
0 0 0
0 0 0
0 0 0
0 0 0
0 0 0
0 0 0
0 0 0
0 0 0
0 0 0
0 0 0
0 0 0
0 0 0
0 0 0
-0.00615033 -0.00455578 -0.00437241
-0.00502561 -0.00441275 -0.00218197
-0.00424153 -0.0046112 3.67179e-05
-0.00479283 -0.00459015 0.00223971
-0.00625956 -0.00456174 0.00448396
-0.00471511 -0.00210647 -0.00463515
-0.0046757 -0.00210547 0.00463689
-0.00444584 0.000123229 -0.0046006
-0.00456309 1.80473e-05 0.00449787
-0.00437766 0.00230525 -0.004615
-0.00442393 0.0021754 0.00468138
-0.00626139 0.00471241 -0.0043117
-0.0050183 0.00444341 -0.00209919
-0.00417396 0.00458921 7.15341e-05
-0.00470991 0.00458799 0.00222132
-0.00630635 0.00464151 0.00448439
-0.0100454 -0.00563873 -0.00541293
-0.00985366 -0.00618454 -0.00309915
-0.00962885 -0.00636076 -0.000103292
-0.0105977 -0.00621433 0.00293567
-0.010113 -0.00568008 0.00554559
-0.0101691 -0.00319848 -0.00594021
-0.0102133 -0.003111 0.00622877
-0.00983083 -6.50238e-05 -0.00641809
-0.0094787 -1.46752e-05 0.00647149
-0.0103121 0.00327865 -0.00650487
-0.0100873 0.00310078 0.00643443
-0.0100124 0.00594639 -0.00540664
-0.0100957 0.00635125 -0.0029358
-0.00940506 0.00639887 7.8875e-05
-0.0104628 0.00618194 0.00301542
-0.0100233 0.00574608 0.00562322
-0.0137947 -0.00496927 -0.00460242
-0.015126 -0.00498927 -0.00221654
-0.0159085 -0.00477185 0.000153188
-0.0152967 -0.00483879 0.00222649
-0.0138901 -0.00499837 0.00452119
-0.0151897 -0.00225901 -0.00524015
-0.0151294 -0.00232718 0.0052656
-0.0159799 9.70073e-05 -0.00505968
-0.0156241 3.38201e-05 0.005071
-0.0158894 0.00230293 -0.00487469
-0.0153937 0.00223227 0.00478347
-0.0139058 0.00472806 -0.00449044
-0.0147917 0.00478788 -0.00212573
-0.0155168 0.00484901 5.32761e-05
-0.0150372 0.00495248 0.00214504
-0.0138653 0.00474241 0.00445288
-0.02 0 0
-0.02 0 0
-0.02 0 0
-0.02 0 0
-0.02 0 0
-0.02 0 0
-0.02 0 0
-0.02 0 0
-0.02 0 0
-0.02 0 0
-0.02 0 0
-0.02 0 0
-0.02 0 0
-0.02 0 0
-0.02 0 0
-0.02 0 0
-0.02 0 0
-0.02 0 0
-0.02 0 0
-0.02 0 0
-0.02 0 0
-0.02 0 0
-0.02 0 0
-0.02 0 0
-0.02 0 0
0 0 0
0 0 0
-0.00344932 -0.00276332 -0.00391496
-0.00202606 -0.00343707 -0.00223185
0 0 0
0 0 0
0 0 0
0 0 0
-0.00164653 -0.00355215 -0.00147325
0 0 0
0 0 0
-0.00177688 -0.00365125 -0.000811064
-0.00164087 -0.00348975 7.64266e-05
-0.00171634 -0.00355035 0.00094089
0 0 0
0 0 0
0 0 0
0 0 0
-0.00157847 -0.00349455 0.00152014
0 0 0
-0.00198193 -0.00340378 0.00221632
-0.00350121 -0.00274511 0.00392452
0 0 0
0 0 0
0 0 0
-0.00278254 -0.00198886 -0.00352446
-0.00155675 -0.00242499 -0.00222866
-0.00210298 -0.00129952 -0.00332449
-0.00158687 -0.000177801 -0.00361462
0 0 0
0 0 0
-0.00148777 -0.00238984 -0.00128758
-0.00154572 -0.00130597 -0.00231976
-0.0011505 -0.000377286 -0.00257992
-0.00408943 -0.00328019 -0.00222703
-0.00362675 -0.00349824 -0.00112224
-0.00399928 -0.00217481 -0.00337433
-0.00338268 -0.00106624 -0.00370086
0 0 0
0 0 0
0 0 0
0 0 0
-0.00133828 -0.00251092 -0.000626066
-0.00121422 -0.00246378 7.09145e-05
-0.00118037 -0.00242948 0.000760926
-0.00348746 -0.00358348 -8.07669e-05
-0.00320537 -0.00369707 0.00126069
-0.00303529 -0.00108493 -0.00263899
0 0 0
0 0 0
-0.00127856 -0.00235458 0.00139871
-0.00146334 -0.00133706 0.00229512
-0.00122662 -0.000481231 0.00254632
-0.00347805 -0.00350537 0.00235554
-0.00385668 -0.0021875 0.00341208
-0.00354484 -0.00111606 0.00359203
0 0 0
0 0 0
-0.0014913 -0.00241146 0.00223441
-0.00279881 -0.00196402 0.00352906
-0.0020395 -0.00131452 0.00333064
-0.00160882 -0.000260118 0.00362837
0 0 0
0 0 0
-0.00155906 0.000221314 -0.00348883
0 0 0
0 0 0
0 0 0
0 0 0
-0.0011661 0.000194692 -0.00237282
-0.00108595 0.000785991 -0.00241589
-0.00300386 6.3841e-06 -0.00377779
-0.00307953 0.00133454 -0.0036862
0 0 0
0 0 0
-0.00341182 -0.00261198 -5.31652e-05
-0.00307968 -0.00260662 0.00122605
-0.00306993 2.73538e-05 -0.00268968
-0.00348536 1.01737e-05 0.00272317
-0.00296691 0.0012901 -0.00258713
-0.00327196 0.00121216 0.00260138
-0.00339141 0.00262593 3.50345e-05
-0.00314699 0.00255549 0.00130373
-0.00995512 3.30203e-06 1.41817e-05
0 0 0
0 0 0
0 0 0
0 0 0
-0.00126541 0.000114045 0.00247846
-0.00117956 0.000719181 0.00252082
-0.00320028 -0.00249678 0.00238743
-0.00344378 -2.66351e-05 0.00369518
-0.00343833 0.00119467 0.00363032
-0.00311983 0.00253956 0.00244246
0 0 0
-0.00161273 0.000140072 0.00361118
0 0 0
0 0 0
0 0 0
-0.00170481 0.000655636 -0.00349829
-0.00173767 0.00143885 -0.00321833
-0.00271713 0.00196112 -0.00342141
-0.00153633 0.00236403 -0.00218363
0 0 0
0 0 0
-0.00124753 0.00137579 -0.00226447
-0.00147217 0.00234657 -0.00124651
-0.00338413 0.00241471 -0.00345432
-0.00386325 0.00340064 -0.00216052
-0.00352804 0.00352397 -0.00106423
0 0 0
0 0 0
0 0 0
0 0 0
-0.00131041 0.00248449 -0.000603434
-0.00119063 0.00243687 8.1656e-05
-0.00117071 0.00244886 0.000768005
-0.00312884 0.00240467 -0.00247895
-0.00338599 0.00358896 1.38898e-05
-0.00317654 0.00371054 0.00130888
0 0 0
0 0 0
-0.0012936 0.00131949 0.00241194
-0.0012635 0.00230426 0.00139638
-0.00354386 0.00228065 0.00359134
-0.00333268 0.00357918 0.00239731
0 0 0
0 0 0
-0.00176798 0.000592136 0.00365382
-0.001782 0.00136719 0.00336243
-0.0014677 0.00233354 0.00224115
-0.00276645 0.00190964 0.00350044
0 0 0
-0.00346357 0.00274947 -0.00384599
-0.00202963 0.00340944 -0.00215704
0 0 0
-0.0016411 0.00352101 -0.00144029
0 0 0
-0.00176041 0.0036097 -0.000769716
-0.00161886 0.00345808 9.39925e-05
-0.00170598 0.0035483 0.000951953
0 0 0
-0.00154716 0.00342132 0.00153296
-0.00196006 0.00333419 0.00218859
-0.00351061 0.00270034 0.00390504
-0.00542762 -0.00454196 -0.00343287
-0.00510882 -0.00331476 -0.00467027
-0.0081034 -0.00525355 -0.0049445
-0.00757687 -0.00416329 -0.00517163
-0.00454889 -0.00458075 -0.00107727
-0.00431385 -0.0032778 -0.00347607
-0.00771345 -0.00516759 -0.00394677
-0.00735076 -0.0052963 -0.00281768
-0.0071105 -0.00542472 -0.00157696
-0.00705994 -0.00409021 -0.00403526
-0.0044759 -0.00460901 0.00113202
-0.00679734 -0.00552771 -9.75318e-05
-0.00542288 -0.00458745 0.00352736
-0.00424987 -0.00331598 0.00352793
-0.00700012 -0.00561009 0.00134995
-0.00754867 -0.00549492 0.00278969
-0.00776615 -0.00525203 0.00413317
-0.00708344 -0.00411815 0.00419454
-0.00514315 -0.00331555 0.00474586
-0.00819653 -0.00527001 0.00513948
-0.00763781 -0.00414814 0.00532856
-0.00449909 -0.00109386 -0.00466708
-0.00737398 -0.002828 -0.00535973
-0.00449492 -0.0011065 0.00464171
-0.00737172 -0.00276155 0.0054769
-0.00434129 0.00114597 -0.00466027
-0.00695742 -0.00152487 -0.00557574
-0.00690455 1.46404e-05 -0.00567728
-0.00692446 0.00143928 -0.00571386
-0.00439839 0.001051 0.00469312
-0.00693527 -0.00143785 0.00558399
-0.0068598 -4.23468e-05 0.00554687
-0.00686779 0.00134995 0.00562344
-0.00498166 0.0035418 -0.0046075
-0.00413117 0.00345582 -0.00339052
-0.00722072 0.00305149 -0.00554679
-0.00413319 0.00338468 0.00355453
-0.00506405 0.00340501 0.00477988
-0.00716232 0.00284039 0.00557471
-0.00548436 0.00464676 -0.00333991
-0.00752079 0.00452405 -0.00518472
-0.00815281 0.00562682 -0.0048414
-0.0045082 0.00456444 -0.000997777
-0.00692258 0.00435124 -0.00404163
-0.00771839 0.00546303 -0.00385555
-0.00741733 0.00546435 -0.0026675
-0.00703572 0.00546069 -0.00139275
-0.00441603 0.0046299 0.0011401
-0.00666132 0.00553899 2.53348e-05
-0.005431 0.0046227 0.00352485
-0.00700463 0.00421139 0.00428218
-0.006892 0.00563313 0.00141829
-0.00742573 0.00551113 0.0028461
-0.00772918 0.00533618 0.0041827
-0.00758119 0.0042737 0.00542506
-0.00816879 0.00539316 0.00517669
-0.00987339 -0.00563614 -0.00441861
-0.0100232 -0.00457208 -0.00567818
-0.0119252 -0.00526264 -0.00519263
-0.0121301 -0.00523584 -0.00416166
-0.00970947 -0.00626168 -0.00168626
-0.00981534 -0.0045899 -0.00451664
-0.00974732 -0.00310713 -0.00460867
-0.0124646 -0.00534826 -0.00288254
-0.0129584 -0.00283204 -0.00430577
-0.00983834 -0.00640883 0.00144028
-0.00974885 -0.00311824 -0.00299522
-0.00974818 -0.00305324 0.00304272
-0.0126802 -0.00546191 -0.00150292
-0.012958 -0.00546749 4.03042e-05
-0.0127701 -0.00573684 0.00150794
-0.0132221 -0.00282809 -0.00289116
-0.0134134 -0.00286633 0.00309256
-0.0165969 -0.00258628 0.000110099
-0.0166278 -0.0025252 0.00133231
-0.0101559 -0.00566535 0.0044444
-0.0101277 -0.00457296 0.0046638
-0.00988951 -0.00300783 0.00473676
-0.0130473 -0.00528674 0.00290348
-0.0131854 -0.00289739 0.00449637
-0.0100961 -0.00457911 0.00587518
-0.0123705 -0.00523563 0.004086
-0.0120307 -0.00534367 0.00510615
-0.00983802 -0.00169557 -0.00620652
-0.0123731 -0.00416681 -0.00535377
-0.0126272 -0.0041232 -0.00423494
-0.0125707 -0.0029167 -0.00547278
-0.0128509 -0.00156009 -0.00558961
-0.00972074 -0.00162278 0.00635654
-0.0128778 -0.00416853 0.00427246
-0.0124928 -0.00424218 0.00534185
-0.0125511 -0.00300392 0.00558395
-0.0127086 -0.00160933 0.00583168
-0.0100076 0.00164634 -0.00640663
-0.00973798 0.00316334 -0.0028708
-0.0130566 -8.9196e-05 -0.00564468
-0.0133796 0.00300433 -0.0027363
-0.016537 8.53462e-05 -0.00274048
-0.0165251 0.00121408 -0.00263722
-0.00964556 0.00161835 0.00643008
-0.00976942 0.00306769 0.00297291
-0.00975357 0.00311017 0.00471102
-0.0128073 -0.000157213 0.00594417
-0.0134254 0.00302066 0.0027826
-0.0131528 0.0030068 0.0043458
-0.0166845 7.29191e-06 0.00277794
-0.0166738 -0.000123876 0.00387571
-0.0167687 0.00112238 0.00277314
-0.016545 0.00101763 0.00390257
-0.0100408 0.00483674 -0.00581187
-0.00995398 0.00490078 -0.00455383
-0.00982091 0.00483617 -0.00298125
-0.0130263 0.00158893 -0.00545774
-0.0131928 0.00298642 -0.00539625
-0.0125467 0.00441474 -0.00519136
-0.0129247 0.00436174 -0.0040752
-0.0131833 0.00445511 -0.00272157
-0.0163569 0.00241651 -0.0023854
-0.0102233 0.00455945 0.00473205
-0.0100335 0.00461513 0.00598857
-0.0127596 0.00143808 0.00583772
-0.0127937 0.00289677 0.0056109
-0.0129567 0.00434629 0.0042144
-0.0124958 0.00427996 0.00533158
-0.0161576 0.00227098 0.00366333
-0.00996661 0.00598883 -0.00434048
-0.0119059 0.00556471 -0.00492174
-0.0121602 0.00544136 -0.00392147
-0.00967902 0.00636212 -0.0014987
-0.0125875 0.00556197 -0.0027989
-0.00974933 0.00637274 0.00156429
-0.0125708 0.00571389 -0.0014073
-0.0126372 0.00585935 7.06133e-05
-0.0127456 0.0056093 0.0015702
-0.0162392 0.00261687 2.1698e-05
-0.0160271 0.00367493 3.21814e-05
-0.0101692 0.00573164 0.00451107
-0.0130364 0.00530961 0.00293473
-0.0123814 0.00529656 0.00407471
-0.0119529 0.00540774 0.00507258
-0.0145065 -0.00495871 -0.00364573
-0.0147753 -0.003639 -0.00507543
-0.0164219 -0.0029119 -0.00416936
-0.0171299 -0.00218018 -0.00384924
-0.0155715 -0.00492602 -0.00103685
-0.0155057 -0.0036466 -0.00384606
-0.0159078 -0.0024307 -0.00382053
-0.0179502 -0.00355733 -0.00240495
-0.0183954 -0.00358889 -0.00163294
-0.0182025 -0.00378013 -0.000948448
-0.0184013 -0.00260684 -0.00256484
-0.0185789 -0.0025283 -0.00167921
-0.0186382 -0.00272654 -0.00079008
-0.018671 -0.00157996 -0.00167238
-0.0187941 -0.00171878 -0.000782859
-0.0156367 -0.00491357 0.00125893
-0.0162593 -0.00243501 -0.00248288
-0.0183074 -0.00368326 4.58462e-05
-0.018736 -0.0027878 2.02834e-05
-0.0188966 -0.00196421 7.33235e-07
-0.0188858 -0.00206221 0.000692894
-0.014635 -0.00492277 0.0035854
-0.0156295 -0.00365421 0.00384756
-0.0160128 -0.00248749 0.0038452
-0.0181897 -0.00385857 0.000993752
-0.018449 -0.00355496 0.00163186
-0.017992 -0.00355071 0.00234675
-0.0186798 -0.00280195 0.000806746
-0.0186484 -0.0025117 0.00165511
-0.0184413 -0.00260981 0.00251062
-0.0187746 -0.00157579 0.00163039
-0.0148354 -0.00371687 0.00503533
-0.0164779 -0.00293623 0.00407891
-0.0171678 -0.00221798 0.00377412
-0.0155924 -0.00104773 -0.005174
-0.0180244 -0.0014897 -0.0036306
-0.0185557 -0.00148626 -0.00269263
-0.0186707 -0.000695209 -0.00267684
-0.0154205 -0.00111077 0.00521042
-0.0186037 -0.00152398 0.00259034
-0.0180261 -0.00154627 0.00353019
-0.0187084 -0.000719556 0.00252128
-0.0159121 0.0013473 -0.00496717
-0.0182105 -0.000545978 -0.00388447
-0.0185013 -6.22913e-05 -0.00379757
-0.0187822 -4.0183e-05 -0.00292677
-0.0188236 9.37184e-05 -0.00206389
-0.0184899 0.000409535 -0.00389193
-0.0187649 0.000701678 -0.00306658
-0.0188765 0.000731241 -0.00231732
-0.0154519 0.00123842 0.00494704
-0.0182006 -0.000531598 0.00370341
-0.0186991 5.1495e-05 0.00254312
-0.01843 -0.000118552 0.00364259
-0.0188304 0.000504485 0.00273323
-0.0183927 0.00025239 0.00376725
-0.0150553 0.00349173 -0.00479381
-0.0157131 0.00349355 -0.00363098
-0.0160211 0.00359302 -0.00233274
-0.0181008 0.00148457 -0.00364234
-0.0185456 0.00156582 -0.00277888
-0.0186673 0.00158656 -0.00191974
-0.0157314 0.0035039 0.00364057
-0.0149319 0.00346208 0.00483352
-0.0185634 0.00134649 0.00250201
-0.0179657 0.00131392 0.00349803
-0.014457 0.00473093 -0.00348733
-0.0172665 0.00214431 -0.00382525
-0.0165239 0.00283281 -0.00419
-0.0152443 0.00486252 -0.00100244
-0.0183905 0.00255919 -0.00259699
-0.0185649 0.00253437 -0.00174665
-0.0186239 0.00249607 -0.000927744
-0.017897 0.00355224 -0.00249661
-0.0182776 0.00372155 -0.0016476
-0.0181551 0.00368594 -0.000984444
-0.0153263 0.00506129 0.00100872
-0.0183817 0.00234241 4.1502e-06
-0.018177 0.00349965 2.38567e-05
-0.0145509 0.00472555 0.00350943
-0.018627 0.00228622 0.000876327
-0.0185629 0.00233 0.00175059
-0.0184666 0.00245732 0.00250415
-0.0182234 0.00350434 0.00104035
-0.0183887 0.00349592 0.00160176
-0.0179778 0.00343629 0.00240202
-0.0172443 0.00202517 0.00374635
-0.0165102 0.00276001 0.00410882
-0.02 0 0
-0.02 0 0
-0.02 0 0
-0.02 0 0
-0.02 0 0
-0.02 0 0
-0.02 0 0
-0.02 0 0
-0.02 0 0
-0.02 0 0
-0.02 0 0
-0.02 0 0
-0.02 0 0
-0.02 0 0
-0.02 0 0
-0.02 0 0
-0.02 0 0
-0.02 0 0
-0.02 0 0
-0.02 0 0
-0.02 0 0
-0.02 0 0
-0.02 0 0
-0.02 0 0
-0.02 0 0
-0.02 0 0
-0.02 0 0
-0.02 0 0
-0.02 0 0
-0.02 0 0
-0.02 0 0
-0.02 0 0
-0.02 0 0
-0.02 0 0
-0.02 0 0
-0.02 0 0
-0.02 0 0
-0.02 0 0
-0.02 0 0
-0.02 0 0
-0.02 0 0
-0.02 0 0
-0.02 0 0
-0.02 0 0
-0.02 0 0
-0.02 0 0
-0.02 0 0
-0.02 0 0
-0.02 0 0
-0.02 0 0
-0.02 0 0
-0.02 0 0
-0.02 0 0
-0.02 0 0
-0.02 0 0
-0.02 0 0
-0.0164123 0.00393126 -0.00374277
-0.0178041 0.00166614 -0.00324629
-0.0085826 -0.00552822 0.00384017
-0.0188293 0.00301217 -0.00145443
-0.02 0 0
-0.0189849 0.0021279 -0.00214728
0 0 0
-0.02 0 0
0 0 0
-0.00596847 0.00519628 -0.000814155
-0.02 0 0
-0.0183168 -0.000129583 0.00221883
-0.00711939 0.00525262 -0.00402698
-0.00848813 0.00512661 -0.00524653
-0.02 0 0
-0.0172221 -0.00109542 0.00428536
-0.0192684 -0.000625261 0.00213961
-0.0035256 -0.00379225 -0.00347904
-0.00215572 -0.0016089 -0.00302517
-0.00779386 -0.00112366 -0.0058887
-0.0133349 -0.00359128 -0.00527954
-0.00851833 -0.00473947 -0.0052368
-0.00708854 -0.00497124 -0.00413328
-0.00252513 0.00404634 0.000664137
-0.000732701 -0.0015268 -0.00139156
-0.00657299 -0.00348978 -0.00504175
-0.00656661 -0.00426334 -0.00422167
0 0 0
-0.0192909 -0.000346864 0.00223864
-0.02 0 0
-0.0189671 -0.000418802 0.00303842
-0.00312989 0.0022671 -0.00391316
0 0 0
-0.000973955 -0.00204745 -0.00192143
-0.00110686 -0.00288219 -0.00125375
-0.000806275 -0.00214765 -0.00137095
-0.00843338 0.00568508 -0.00364143
-0.00821887 0.00496978 -0.00457702
-0.00152747 -0.00106302 -0.00204082
-0.02 0 0
-0.00199996 -0.00243982 -0.000509886
0 0 0
-0.000988612 0.000481847 -0.0029019
0 0 0
-0.0137026 0.00368815 -0.00508809
-0.0164386 0.00236469 0.00171203
-0.0080534 -0.00586767 0.00183722
-0.0167304 0.0022508 0.00421397
-0.0129515 0.00510696 0.00424001
-0.0115376 0.00485703 0.00540393
-0.00796562 0.00496146 -0.00374262
-0.00269761 -0.000955654 -0.00410345
-0.000959074 -0.000936032 -0.00195026
-0.00319713 0.00219203 0.00401516
0 0 0
-0.00106913 -0.00282728 0.00125159
0 0 0
-0.000763908 -0.00210636 0.00135743
-0.02 0 0
-0.00286042 0.00298646 -0.00327094
-0.00357043 0.00380404 -0.00339212
-0.00211767 0.00156974 -0.00295441
-0.000961795 0.00199375 -0.00186752
-0.00109106 0.00281988 -0.00120852
-0.000790848 0.00206378 -0.00132938
0 0 0
0 0 0
-0.000723595 0.00100436 -0.00188904
-0.000706298 0.00143825 -0.00136733
-0.0023643 0.00239217 -0.00306973
0 0 0
0 0 0
-0.000718115 -0.000406022 -0.00216758
0 0 0
-0.000674479 -7.56982e-05 -0.00219383
-0.000673067 0.000164657 -0.00210161
-0.000977186 -0.000132869 -0.00293939
0 0 0
-0.00104435 0.000451001 0.00306467
-0.0083644 -0.00541579 -0.00375628
-0.0079707 -0.00472556 -0.00378748
-0.00823986 -0.00466591 -0.00456045
-0.00214686 0.00152936 0.00297185
-0.00284184 0.0029442 0.00336223
-0.00356156 0.00374575 0.00347751
-0.0137464 0.00188644 0.00549132
0 0 0
-0.000754234 0.00209017 -0.000959104
0 0 0
-0.000776049 0.00232244 -0.000597334
-0.00108394 0.00303317 -0.000823834
-0.0193874 0.000238525 0.00177666
0 0 0
-0.00109726 -0.0030701 -0.000856936
-0.00509467 0.00374973 0.000892394
-0.00255158 0.00107065 0.00416078
-0.0007085 0.000602458 0.00216469
-0.000719142 0.000371751 0.00227426
-0.00256094 -0.00411886 -0.000509942
-0.000736697 -0.00224841 -0.000284349
-0.00266407 -0.00101249 0.0041212
0 0 0
-0.000690604 0.0021265 0.000433451
-0.00102069 0.0028846 0.00094783
0 0 0
-0.00070632 0.00217768 0.000717513
-0.000609584 0.0016063 0.000629871
-0.00068994 0.00197807 0.00102876
-0.00366614 -0.00389323 -0.000711376
-0.00604604 -0.00518983 -0.000950438
-0.00204666 -0.00329609 -0.000524011
-0.00253 0.00116739 -0.00401055
-0.000674042 0.000636905 -0.00202029
-0.000676565 0.000406353 -0.002133
-0.00236916 0.00233357 0.00316686
-0.000743916 0.00097345 0.00200355
-0.00201801 0.00231287 0.00248894
-0.000671471 0.00141705 0.00140742
0 0 0
-0.000929433 0.00193632 0.0018645
-0.00104127 0.00273891 0.00123883
-0.000742736 0.00200864 0.00135062
-0.000692933 -0.00151529 0.00138942
-0.000906946 -0.000963895 0.00193084
-0.000945477 -0.00200573 0.00188452
-0.00216883 -0.00158188 0.00300025
-0.00354618 -0.00378115 0.00349989
-0.019248 0.00202471 0.00118467
-0.02 0 0
-0.00150185 0.00218103 0.000731055
0 0 0
-0.00147947 0.00155031 0.00144116
-0.0175265 0.00238135 0.00341314
-0.0192477 0.00151864 0.00169716
-0.00332357 -0.00217344 -0.00401196
-0.00252519 -0.00231472 -0.00316586
-0.00472878 -0.00365599 -0.00394306
-0.00290597 -0.00297226 -0.00336594
-0.0129974 -0.00510619 0.00429188
-0.0115665 -0.00477619 0.00537268
-0.016479 7.01015e-05 -0.00344149
-0.000728382 -0.00048427 0.00219198
-0.000648375 -0.000189678 0.00165971
0 0 0
-0.0189743 -0.000405696 -0.00316474
-0.02 0 0
-0.00349428 -0.000603341 -0.00412903
-0.0014567 -0.000456559 -0.00277265
-0.00058199 -0.000120168 -0.00164102
-0.00405343 0.00373599 -0.00214455
-0.00795633 0.00579788 -0.00194171
-0.00612595 -0.00180031 0.0052619
-0.00211163 -0.0010097 0.00331863
0 0 0
-0.000701299 -0.00167542 -0.000477678
-0.000763417 -0.00213257 -0.000984236
-0.000782288 -0.00234695 -0.000615199
-0.02 0 0
-0.02 0 0
-0.0188753 0.00305486 -0.00102386
-0.00254076 -0.00404889 0.000657661
-0.000705698 -0.00210019 7.55371e-05
-0.00714538 -0.00502194 0.00431127
-0.00832423 -0.00468869 0.0047679
-0.00859038 -0.00475391 0.00543471
-0.000707727 -0.00203508 0.00102237
0 0 0
-0.00659831 -0.00429839 0.00437879
-0.00661866 -0.00346187 0.00517038
-0.00381067 -0.00144552 0.00391934
-0.00363912 -0.000680912 0.00398201
-0.00774681 -0.00102418 0.00588942
-0.00398325 -0.00218312 0.00378825
-0.00613098 -0.00344694 0.00441022
-0.0021292 -0.00232815 0.00245651
-0.0179167 0.00250926 -0.00141419
-0.0188975 0.00287691 0.00137336
-0.02 0 0
-0.0191901 0.0021567 0.00155582
-0.0135843 -0.0035669 -0.00454139
-0.0136769 -0.00188101 -0.00543559
0 0 0
-0.00101498 -0.00022567 0.00302875
-0.000715106 0.000110348 0.00223587
-0.000704098 -0.000146288 0.00226038
-0.00854012 0.00487255 0.00553548
-0.00713326 0.0051245 0.00434938
0 0 0
-0.000697276 -0.00211955 0.000428832
-0.00103005 -0.00289175 0.000934857
-0.000712537 -0.00216644 0.000709224
-0.0114465 -0.00470889 -0.00538585
-0.0128226 -0.00509656 -0.00439576
-0.0132647 -0.00440016 -0.00445354
-0.0161752 0.00317541 -0.00157772
-0.0162618 0.00240203 -0.00162144
-0.0159232 0.00404359 3.72597e-05
-0.0116932 -0.00566073 -0.00208917
-0.00356113 -0.00391566 0.000778697
-0.00359729 -0.00391139 2.67703e-05
-0.00196849 -0.0032437 0.000660436
-0.00600496 -0.00526611 0.000814747
-0.00553449 -0.00174342 0.00455767
-0.00568893 -0.0034992 0.00358021