# vtk DataFile Version 3.0
vtk output at time 0.1
ASCII
DATASET UNSTRUCTURED_GRID
POINTS 125 float
0 0 0 0 0 0.05 0 0 0.1 
0 0 0.15 0 0 0.2 0 0.05 0 
0 0.05 0.05 0 0.05 0.1 0 0.05 0.15 
0 0.05 0.2 0 0.1 0 0 0.1 0.05 
0 0.1 0.1 0 0.1 0.15 0 0.1 0.2 
0 0.15 0 0 0.15 0.05 0 0.15 0.1 
0 0.15 0.15 0 0.15 0.2 0 0.2 0 
0 0.2 0.05 0 0.2 0.1 0 0.2 0.15 
0 0.2 0.2 0.0490622 -0.000862049 -0.00144873 0.0497952 -0.00120393 0.0493371 
0.0492501 -0.00110174 0.1 0.0497952 -0.00120393 0.150663 0.0490622 -0.000862049 0.201449 
0.0487465 0.0495432 -0.00117646 0.049336 0.0493999 0.0494041 0.0487604 0.0494356 0.1 
0.049336 0.0493999 0.150596 0.0487465 0.0495432 0.201176 0.0491371 0.1 -0.00137022 
0.0498312 0.1 0.0493659 0.0493029 0.1 0.1 0.0498312 0.1 0.150634 
0.0491371 0.1 0.20137 0.0487465 0.150457 -0.00117646 0.049336 0.1506 0.0494041 
0.0487604 0.150564 0.1 0.049336 0.1506 0.150596 0.0487465 0.150457 0.201176 
0.0490622 0.200862 -0.00144873 0.0497952 0.201204 0.0493371 0.0492501 0.201102 0.1 
0.0497952 0.201204 0.150663 0.0490622 0.200862 0.201449 0.0975 -0.00153584 -0.00256276 
0.0975 -0.00201985 0.0488704 0.0975 -0.00207067 0.1 0.0975 -0.00201985 0.15113 
0.0975 -0.00153584 0.202563 0.0975 0.0491741 -0.00227737 0.0975 0.0489803 0.048866 
0.0974999 0.0489335 0.1 0.0975 0.0489803 0.151134 0.0975 0.0491741 0.202277 
0.0975 0.1 -0.00244494 0.0975 0.1 0.0489089 0.0975 0.1 0.1 
0.0975 0.1 0.151091 0.0975 0.1 0.202445 0.0975 0.150826 -0.00227737 
0.0975 0.15102 0.048866 0.0974999 0.151067 0.1 0.0975 0.15102 0.151134 
0.0975 0.150826 0.202277 0.0975 0.201536 -0.00256276 0.0975 0.20202 0.0488704 
0.0975 0.202071 0.1 0.0975 0.20202 0.15113 0.0975 0.201536 0.202563 
0.145938 -0.000862009 -0.00144872 0.145205 -0.00120389 0.0493371 0.14575 -0.0011017 0.1 
0.145205 -0.00120389 0.150663 0.145938 -0.000862009 0.201449 0.146253 0.0495432 -0.00117644 
0.145664 0.0493999 0.0494041 0.14624 0.0494356 0.1 0.145664 0.0493999 0.150596 
0.146253 0.0495432 0.201176 0.145863 0.1 -0.0013702 0.145169 0.1 0.0493659 
0.145697 0.1 0.1 0.145169 0.1 0.150634 0.145863 0.1 0.20137 
0.146253 0.150457 -0.00117644 0.145664 0.1506 0.0494041 0.14624 0.150564 0.1 
0.145664 0.1506 0.150596 0.146253 0.150457 0.201176 0.145938 0.200862 -0.00144872 
0.145205 0.201204 0.0493371 0.14575 0.201102 0.1 0.145205 0.201204 0.150663 
0.145938 0.200862 0.201449 0.195 0 0 0.195 0 0.05 
0.195 0 0.1 0.195 0 0.15 0.195 0 0.2 
0.195 0.05 0 0.195 0.05 0.05 0.195 0.05 0.1 
0.195 0.05 0.15 0.195 0.05 0.2 0.195 0.1 0 
0.195 0.1 0.05 0.195 0.1 0.1 0.195 0.1 0.15 
0.195 0.1 0.2 0.195 0.15 0 0.195 0.15 0.05 
0.195 0.15 0.1 0.195 0.15 0.15 0.195 0.15 0.2 
0.195 0.2 0 0.195 0.2 0.05 0.195 0.2 0.1 
0.195 0.2 0.15 0.195 0.2 0.2 

CELLS 384 1920
4 5 6 26 31 
4 5 6 1 26 
4 0 5 1 26 
4 0 5 26 25 
4 25 5 26 30 
4 30 5 26 31 
4 26 25 55 50 
4 26 25 30 55 
4 31 26 30 55 
4 26 31 56 55 
4 26 56 51 55 
4 26 51 50 55 
4 55 56 76 81 
4 55 56 51 76 
4 50 55 51 76 
4 50 55 76 75 
4 75 55 76 80 
4 80 55 76 81 
4 76 75 105 100 
4 76 75 80 105 
4 81 76 80 105 
4 76 81 106 105 
4 76 106 101 105 
4 76 101 100 105 
4 10 5 35 36 
4 5 10 11 36 
4 6 5 11 36 
4 5 6 31 36 
4 5 31 30 36 
4 5 30 35 36 
4 36 31 55 56 
4 36 31 30 55 
4 35 36 30 55 
4 35 36 55 60 
4 60 36 55 61 
4 61 36 55 56 
4 60 55 85 86 
4 55 60 61 86 
4 56 55 61 86 
4 55 56 81 86 
4 55 81 80 86 
4 55 80 85 86 
4 86 81 105 106 
4 86 81 80 105 
4 85 86 80 105 
4 85 86 105 110 
4 110 86 105 111 
4 111 86 105 106 
4 15 16 36 41 
4 15 16 11 36 
4 10 15 11 36 
4 10 15 36 35 
4 35 15 36 40 
4 40 15 36 41 
4 36 35 65 60 
4 36 35 40 65 
4 41 36 40 65 
4 36 41 66 65 
4 36 66 61 65 
4 36 61 60 65 
4 65 66 86 91 
4 65 66 61 86 
4 60 65 61 86 
4 60 65 86 85 
4 85 65 86 90 
4 90 65 86 91 
4 86 85 115 110 
4 86 85 90 115 
4 91 86 90 115 
4 86 91 116 115 
4 86 116 111 115 
4 86 111 110 115 
4 20 15 45 46 
4 15 20 21 46 
4 16 15 21 46 
4 15 16 41 46 
4 15 41 40 46 
4 15 40 45 46 
4 46 41 65 66 
4 46 41 40 65 
4 45 46 40 65 
4 45 46 65 70 
4 70 46 65 71 
4 71 46 65 66 
4 70 65 95 96 
4 65 70 71 96 
4 66 65 71 96 
4 65 66 91 96 
4 65 91 90 96 
4 65 90 95 96 
4 96 91 115 116 
4 96 91 90 115 
4 95 96 90 115 
4 95 96 115 120 
4 120 96 115 121 
4 121 96 115 116 
4 7 2 26 27 
4 7 2 1 26 
4 6 7 1 26 
4 6 7 26 31 
4 31 7 26 32 
4 32 7 26 27 
4 31 26 56 57 
4 26 31 32 57 
4 27 26 32 57 
4 26 27 52 57 
4 26 52 51 57 
4 26 51 56 57 
4 57 52 76 77 
4 57 52 51 76 
4 56 57 51 76 
4 56 57 76 81 
4 81 57 76 82 
4 82 57 76 77 
4 81 76 106 107 
4 76 81 82 107 
4 77 76 82 107 
4 76 77 102 107 
4 76 102 101 107 
4 76 101 106 107 
4 7 6 36 31 
4 7 6 11 36 
4 12 7 11 36 
4 7 12 37 36 
4 7 37 32 36 
4 7 32 31 36 
4 36 37 57 62 
4 36 37 32 57 
4 31 36 32 57 
4 31 36 57 56 
4 56 36 57 61 
4 61 36 57 62 
4 57 56 86 81 
4 57 56 61 86 
4 62 57 61 86 
4 57 62 87 86 
4 57 87 82 86 
4 57 82 81 86 
4 86 87 107 112 
4 86 87 82 107 
4 81 86 82 107 
4 81 86 107 106 
4 106 86 107 111 
4 111 86 107 112 
4 17 12 36 37 
4 17 12 11 36 
4 16 17 11 36 
4 16 17 36 41 
4 41 17 36 42 
4 42 17 36 37 
4 41 36 66 67 
4 36 41 42 67 
4 37 36 42 67 
4 36 37 62 67 
4 36 62 61 67 
4 36 61 66 67 
4 67 62 86 87 
4 67 62 61 86 
4 66 67 61 86 
4 66 67 86 91 
4 91 67 86 92 
4 92 67 86 87 
4 91 86 116 117 
4 86 91 92 117 
4 87 86 92 117 
4 86 87 112 117 
4 86 112 111 117 
4 86 111 116 117 
4 17 16 46 41 
4 17 16 21 46 
4 22 17 21 46 
4 17 22 47 46 
4 17 47 42 46 
4 17 42 41 46 
4 46 47 67 72 
4 46 47 42 67 
4 41 46 42 67 
4 41 46 67 66 
4 66 46 67 71 
4 71 46 67 72 
4 67 66 96 91 
4 67 66 71 96 
4 72 67 71 96 
4 67 72 97 96 
4 67 97 92 96 
4 67 92 91 96 
4 96 97 117 122 
4 96 97 92 117 
4 91 96 92 117 
4 91 96 117 116 
4 116 96 117 121 
4 121 96 117 122 
4 7 8 28 33 
4 7 8 3 28 
4 2 7 3 28 
4 2 7 28 27 
4 27 7 28 32 
4 32 7 28 33 
4 28 27 57 52 
4 28 27 32 57 
4 33 28 32 57 
4 28 33 58 57 
4 28 58 53 57 
4 28 53 52 57 
4 57 58 78 83 
4 57 58 53 78 
4 52 57 53 78 
4 52 57 78 77 
4 77 57 78 82 
4 82 57 78 83 
4 78 77 107 102 
4 78 77 82 107 
4 83 78 82 107 
4 78 83 108 107 
4 78 108 103 107 
4 78 103 102 107 
4 12 7 37 38 
4 7 12 13 38 
4 8 7 13 38 
4 7 8 33 38 
4 7 33 32 38 
4 7 32 37 38 
4 38 33 57 58 
4 38 33 32 57 
4 37 38 32 57 
4 37 38 57 62 
4 62 38 57 63 
4 63 38 57 58 
4 62 57 87 88 
4 57 62 63 88 
4 58 57 63 88 
4 57 58 83 88 
4 57 83 82 88 
4 57 82 87 88 
4 88 83 107 108 
4 88 83 82 107 
4 87 88 82 107 
4 87 88 107 112 
4 112 88 107 113 
4 113 88 107 108 
4 17 18 38 43 
4 17 18 13 38 
4 12 17 13 38 
4 12 17 38 37 
4 37 17 38 42 
4 42 17 38 43 
4 38 37 67 62 
4 38 37 42 67 
4 43 38 42 67 
4 38 43 68 67 
4 38 68 63 67 
4 38 63 62 67 
4 67 68 88 93 
4 67 68 63 88 
4 62 67 63 88 
4 62 67 88 87 
4 87 67 88 92 
4 92 67 88 93 
4 88 87 117 112 
4 88 87 92 117 
4 93 88 92 117 
4 88 93 118 117 
4 88 118 113 117 
4 88 113 112 117 
4 22 17 47 48 
4 17 22 23 48 
4 18 17 23 48 
4 17 18 43 48 
4 17 43 42 48 
4 17 42 47 48 
4 48 43 67 68 
4 48 43 42 67 
4 47 48 42 67 
4 47 48 67 72 
4 72 48 67 73 
4 73 48 67 68 
4 72 67 97 98 
4 67 72 73 98 
4 68 67 73 98 
4 67 68 93 98 
4 67 93 92 98 
4 67 92 97 98 
4 98 93 117 118 
4 98 93 92 117 
4 97 98 92 117 
4 97 98 117 122 
4 122 98 117 123 
4 123 98 117 118 
4 9 4 28 29 
4 9 4 3 28 
4 8 9 3 28 
4 8 9 28 33 
4 33 9 28 34 
4 34 9 28 29 
4 33 28 58 59 
4 28 33 34 59 
4 29 28 34 59 
4 28 29 54 59 
4 28 54 53 59 
4 28 53 58 59 
4 59 54 78 79 
4 59 54 53 78 
4 58 59 53 78 
4 58 59 78 83 
4 83 59 78 84 
4 84 59 78 79 
4 83 78 108 109 
4 78 83 84 109 
4 79 78 84 109 
4 78 79 104 109 
4 78 104 103 109 
4 78 103 108 109 
4 9 8 38 33 
4 9 8 13 38 
4 14 9 13 38 
4 9 14 39 38 
4 9 39 34 38 
4 9 34 33 38 
4 38 39 59 64 
4 38 39 34 59 
4 33 38 34 59 
4 33 38 59 58 
4 58 38 59 63 
4 63 38 59 64 
4 59 58 88 83 
4 59 58 63 88 
4 64 59 63 88 
4 59 64 89 88 
4 59 89 84 88 
4 59 84 83 88 
4 88 89 109 114 
4 88 89 84 109 
4 83 88 84 109 
4 83 88 109 108 
4 108 88 109 113 
4 113 88 109 114 
4 19 14 38 39 
4 19 14 13 38 
4 18 19 13 38 
4 18 19 38 43 
4 43 19 38 44 
4 44 19 38 39 
4 43 38 68 69 
4 38 43 44 69 
4 39 38 44 69 
4 38 39 64 69 
4 38 64 63 69 
4 38 63 68 69 
4 69 64 88 89 
4 69 64 63 88 
4 68 69 63 88 
4 68 69 88 93 
4 93 69 88 94 
4 94 69 88 89 
4 93 88 118 119 
4 88 93 94 119 
4 89 88 94 119 
4 88 89 114 119 
4 88 114 113 119 
4 88 113 118 119 
4 19 18 48 43 
4 19 18 23 48 
4 24 19 23 48 
4 19 24 49 48 
4 19 49 44 48 
4 19 44 43 48 
4 48 49 69 74 
4 48 49 44 69 
4 43 48 44 69 
4 43 48 69 68 
4 68 48 69 73 
4 73 48 69 74 
4 69 68 98 93 
4 69 68 73 98 
4 74 69 73 98 
4 69 74 99 98 
4 69 99 94 98 
4 69 94 93 98 
4 98 99 119 124 
4 98 99 94 119 
4 93 98 94 119 
4 93 98 119 118 
4 118 98 119 123 
4 123 98 119 124 

CELL_TYPES 384
10
10
10
10
10
10
10
10
10
10
10
10
10
10
10
10
10
10
10
10
10
10
10
10
10
10
10
10
10
10
10
10
10
10
10
10
10
10
10
10
10
10
10
10
10
10
10
10
10
10
10
10
10
10
10
10
10
10
10
10
10
10
10
10
10
10
10
10
10
10
10
10
10
10
10
10
10
10
10
10
10
10
10
10
10
10
10
10
10
10
10
10
10
10
10
10
10
10
10
10
10
10
10
10
10
10
10
10
10
10
10
10
10
10
10
10
10
10
10
10
10
10
10
10
10
10
10
10
10
10
10
10
10
10
10
10
10
10
10
10
10
10
10
10
10
10
10
10
10
10
10
10
10
10
10
10
10
10
10
10
10
10
10
10
10
10
10
10
10
10
10
10
10
10
10
10
10
10
10
10
10
10
10
10
10
10
10
10
10
10
10
10
10
10
10
10
10
10
10
10
10
10
10
10
10
10
10
10
10
10
10
10
10
10
10
10
10
10
10
10
10
10
10
10
10
10
10
10
10
10
10
10
10
10
10
10
10
10
10
10
10
10
10
10
10
10
10
10
10
10
10
10
10
10
10
10
10
10
10
10
10
10
10
10
10
10
10
10
10
10
10
10
10
10
10
10
10
10
10
10
10
10
10
10
10
10
10
10
10
10
10
10
10
10
10
10
10
10
10
10
10
10
10
10
10
10
10
10
10
10
10
10
10
10
10
10
10
10
10
10
10
10
10
10
10
10
10
10
10
10
10
10
10
10
10
10
10
10
10
10
10
10
10
10
10
10
10
10
10
10
10
10
10
10
10
10
10
10
10
10
10
10
10
10
10
10
10
10
10
10
10
10
10
10
10
10
10
10
10
10
10
10
10
10

POINT_DATA 125
VECTORS displacement float
0 0 0
0 0 0
0 0 0
0 0 0
0 0 0
0 0 0
0 0 0
0 0 0
0 0 0
0 0 0
0 0 0
0 0 0
0 0 0
0 0 0
0 0 0
0 0 0
0 0 0
0 0 0
0 0 0
0 0 0
0 0 0
0 0 0
0 0 0
0 0 0
0 0 0
-0.00093779 -0.000862049 -0.00144873
-0.000204833 -0.00120393 -0.000662874
-0.000749897 -0.00110174 0
-0.000204833 -0.00120393 0.000662874
-0.00093779 -0.000862049 0.00144873
-0.00125355 -0.000456775 -0.00117646
-0.000663986 -0.000600105 -0.000595913
-0.00123961 -0.000564411 1.38778e-17
-0.000663986 -0.000600105 0.000595913
-0.00125355 -0.000456775 0.00117646
-0.000862904 1.38778e-17 -0.00137022
-0.000168807 0 -0.000634133
-0.000697109 0 0
-0.000168807 0 0.000634133
-0.000862904 0 0.00137022
-0.00125355 0.000456775 -0.00117646
-0.000663986 0.000600105 -0.000595913
-0.00123961 0.000564411 0
-0.000663986 0.000600105 0.000595913
-0.00125355 0.000456775 0.00117646
-0.00093779 0.000862049 -0.00144873
-0.000204833 0.00120393 -0.000662874
-0.000749897 0.00110174 0
-0.000204833 0.00120393 0.000662874
-0.00093779 0.000862049 0.00144873
-0.00250001 -0.00153584 -0.00256276
-0.0025 -0.00201985 -0.00112958
-0.00250004 -0.00207067 -1.38778e-17
-0.0025 -0.00201985 0.00112958
-0.00250001 -0.00153584 0.00256276
-0.00250004 -0.00082589 -0.00227737
-0.00250004 -0.00101969 -0.00113395
-0.00250007 -0.00106654 1.38778e-17
-0.00250004 -0.00101969 0.00113395
-0.00250004 -0.00082589 0.00227737
-0.00250002 1.38778e-17 -0.00244494
-0.0025 0 -0.00109113
-0.00250004 0 0
-0.0025 0 0.00109113
-0.00250002 0 0.00244494
-0.00250004 0.00082589 -0.00227737
-0.00250004 0.00101969 -0.00113395
-0.00250007 0.00106654 1.38778e-17
-0.00250004 0.00101969 0.00113395
-0.00250004 0.00082589 0.00227737
-0.00250001 0.00153584 -0.00256276
-0.0025 0.00201985 -0.00112958
-0.00250004 0.00207067 0
-0.0025 0.00201985 0.00112958
-0.00250001 0.00153584 0.00256276
-0.00406225 -0.000862009 -0.00144872
-0.00479519 -0.00120389 -0.000662854
-0.00425015 -0.0011017 0
-0.00479519 -0.00120389 0.000662854
-0.00406225 -0.000862009 0.00144872
-0.00374651 -0.000456756 -0.00117644
-0.00433605 -0.000600087 -0.000595891
-0.00376047 -0.000564393 -1.38778e-17
-0.00433605 -0.000600087 0.000595891
-0.00374651 -0.000456756 0.00117644
-0.00413713 0 -0.0013702
-0.00483119 -1.38778e-17 -0.00063411
-0.00430293 0 0
-0.00483119 -1.38778e-17 0.00063411
-0.00413713 -2.77556e-17 0.0013702
-0.00374651 0.000456756 -0.00117644
-0.00433605 0.000600087 -0.000595891
-0.00376047 0.000564393 0
-0.00433605 0.000600087 0.000595891
-0.00374651 0.000456756 0.00117644
-0.00406225 0.000862009 -0.00144872
-0.00479519 0.00120389 -0.000662854
-0.00425015 0.0011017 -1.38778e-17
-0.00479519 0.00120389 0.000662854
-0.00406225 0.000862009 0.00144872
-0.005 0 0
-0.005 0 0
-0.005 0 0
-0.005 0 0
-0.005 0 0
-0.005 0 0
-0.005 0 0
-0.005 0 0
-0.005 0 0
-0.005 0 0
-0.005 0 0
-0.005 0 0
-0.005 0 0
-0.005 0 0
-0.005 0 0
-0.005 0 0
-0.005 0 0
-0.005 0 0
-0.005 0 0
-0.005 0 0
-0.005 0 0
-0.005 0 0
-0.005 0 0
-0.005 0 0
-0.005 0 0

CELL_DATA 384
TENSORS stress float
-1460.95 -448.674 -244.033
-448.674 -387.806 38.1779
-244.033 38.1779 -924.243

-4173.96 -432.367 -238.058
-432.367 -4019.99 12.8547
-238.058 12.8547 -4036.26

-4173.96 -432.367 -238.058
-432.367 -4019.99 12.8547
-238.058 12.8547 -4036.26

-2918.13 -324.445 -266.957
-324.445 -2206.12 -128.443
-266.957 -128.443 -1541.71

-1335.25 -324.626 -173.247
-324.626 50.9167 -25.6985
-173.247 -25.6985 410.888

-1539.75 -384.325 -231.885
-384.325 11.8755 -25.7465
-231.885 -25.7465 -3.67197

-1404.15 -280.395 -143.013
-280.395 516.667 -18.0723
-143.013 -18.0723 592.964

-1239.7 -289.914 -142.348
-289.914 146.987 -27.7703
-142.348 -27.7703 508.105

-1444.61 -349.954 -201.859
-349.954 108.522 -28.0197
-201.859 -28.0197 92.6684

-2105.27 -355.213 -216.578
-355.213 -133.91 -54.1899
-216.578 -54.1899 369.906

-3131.79 -306.055 -175.262
-306.055 -563.773 -85.6088
-175.262 -85.6088 -438.761

-3035.84 -303.61 -178.522
-303.61 -717.37 -88.665
-178.522 -88.665 -51.4901

-2104.93 355.219 216.597
355.219 -133.582 -54.1893
216.597 -54.1893 370.258

-3132.1 306.036 175.272
306.036 -564.106 -85.6072
175.272 -85.6072 -439.096

-3036.14 303.594 178.536
303.594 -717.701 -88.6632
178.536 -88.6632 -51.8291

-1404.18 280.386 143.025
280.386 516.637 -18.0742
143.025 -18.0742 592.941

-1239.36 289.918 142.368
289.918 147.308 -27.7684
142.368 -27.7684 508.458

-1444.36 349.959 201.879
349.959 108.752 -28.0194
201.879 -28.0194 92.9156

-2917.2 324.446 266.972
324.446 -2205.18 -128.452
266.972 -128.452 -1540.74

-1334.37 324.624 173.253
324.624 51.7858 -25.6982
173.253 -25.6982 411.797

-1538.97 384.325 231.893
384.325 12.6583 -25.7479
231.893 -25.7479 -2.87316

-1460.52 448.668 244.03
448.668 -387.409 38.1788
244.03 38.1788 -923.839

-4173.53 432.364 238.057
432.364 -4019.57 12.8541
238.057 12.8541 -4035.84

-4173.53 432.364 238.057
432.364 -4019.57 12.8541
238.057 12.8541 -4035.84

-2625.21 8.51331e-12 -258.89
8.51331e-12 -1966.07 -9.7999e-12
-258.89 -9.7999e-12 -1326.5

-3703.62 0 -233.76
0 -3582.53 0
-233.76 0 -3575.98

-3703.62 0 -233.76
0 -3582.53 0
-233.76 0 -3575.98

-1543.24 -38.293 -242.291
-38.293 -477.734 -13.2159
-242.291 -13.2159 -999.112

-1617.94 23.5873 -231.56
23.5873 -75.4349 -78.5591
-231.56 -78.5591 -80.2177

-1343.09 -20.9131 -190.3
-20.9131 88.6409 -84.5498
-190.3 -84.5498 360.766

-2181.1 40.6161 -216.858
40.6161 -220.447 -107.456
-216.858 -107.456 291.659

-1521.41 59.661 -201.757
59.661 22.6714 -80.3937
-201.757 -80.3937 16.1349

-1246.55 15.2066 -159.669
15.2066 185.985 -86.4089
-159.669 -86.4089 457.753

-1728.47 0.518448 -140.876
0.518448 326.949 -78.9563
-140.876 -78.9563 254.357

-3220.26 0.671188 -173.654
0.671188 -802.803 -77.3224
-173.654 -77.3224 -309.227

-3581.26 0.613844 -168.583
0.613844 -1038.38 -68.894
-168.583 -68.894 -922.435

-1728.38 -0.49535 140.897
-0.49535 327.049 -78.9565
140.897 -78.9565 254.46

-3220.31 -0.649899 173.676
-0.649899 -802.862 -77.322
173.676 -77.322 -309.286

-3581.32 -0.58501 168.596
-0.58501 -1038.44 -68.8935
168.596 -68.8935 -922.494

-2180.77 -40.5947 216.876
-40.5947 -220.126 -107.457
216.876 -107.457 292.005

-1521.16 -59.638 201.776
-59.638 22.8952 -80.3946
201.776 -80.3946 16.3756

-1246.28 -15.1873 159.693
-15.1873 186.228 -86.4104
159.693 -86.4104 458.02

-1542.83 38.3022 242.287
38.3022 -477.343 -13.216
242.287 -13.216 -998.714

-1617.16 -23.5804 231.569
-23.5804 -74.6582 -78.5625
231.569 -78.5625 -79.4255

-1342.29 20.9174 190.311
20.9174 89.433 -84.5539
190.311 -84.5539 361.587

-2624.53 -4.21084e-15 258.903
-4.21084e-15 -1965.38 -4.71063e-12
258.903 -4.71063e-12 -1325.8

-3703.6 4.09262e-12 233.752
4.09262e-12 -3582.51 1.14659e-13
233.752 1.14659e-13 -3575.96

-3703.6 4.09262e-12 233.752
4.09262e-12 -3582.51 1.14659e-13
233.752 1.14659e-13 -3575.96

-1543.24 38.293 -242.291
38.293 -477.734 13.2159
-242.291 13.2159 -999.112

-3703.62 0 -233.76
0 -3582.53 0
-233.76 0 -3575.98

-3703.62 0 -233.76
0 -3582.53 0
-233.76 0 -3575.98

-2625.21 8.51331e-12 -258.89
8.51331e-12 -1966.07 -9.7999e-12
-258.89 -9.7999e-12 -1326.5

-1343.09 20.9131 -190.3
20.9131 88.6409 84.5498
-190.3 84.5498 360.766

-1617.94 -23.5873 -231.56
-23.5873 -75.4349 78.5591
-231.56 78.5591 -80.2177

-1728.47 -0.518448 -140.876
-0.518448 326.949 78.9563
-140.876 78.9563 254.357

-1246.55 -15.2066 -159.669
-15.2066 185.985 86.4089
-159.669 86.4089 457.753

-1521.41 -59.661 -201.757
-59.661 22.6714 80.3937
-201.757 80.3937 16.1349

-2181.1 -40.6161 -216.858
-40.6161 -220.447 107.456
-216.858 107.456 291.659

-3581.26 -0.613844 -168.583
-0.613844 -1038.38 68.894
-168.583 68.894 -922.435

-3220.26 -0.671188 -173.654
-0.671188 -802.803 77.3224
-173.654 77.3224 -309.227

-2180.77 40.5947 216.876
40.5947 -220.126 107.457
216.876 107.457 292.005

-3581.32 0.58501 168.596
0.58501 -1038.44 68.8935
168.596 68.8935 -922.494

-3220.31 0.649899 173.676
0.649899 -802.862 77.322
173.676 77.322 -309.286

-1728.38 0.49535 140.897
0.49535 327.049 78.9565
140.897 78.9565 254.46

-1246.28 15.1873 159.693
15.1873 186.228 86.4104
159.693 86.4104 458.02

-1521.16 59.638 201.776
59.638 22.8952 80.3946
201.776 80.3946 16.3756

-2624.53 -4.21084e-15 258.903
-4.21084e-15 -1965.38 -4.71063e-12
258.903 -4.71063e-12 -1325.8

-1342.29 -20.9174 190.311
-20.9174 89.433 84.5539
190.311 84.5539 361.587

-1617.16 23.5804 231.569
23.5804 -74.6582 78.5625
231.569 78.5625 -79.4255

-1542.83 -38.3022 242.287
-38.3022 -477.343 13.216
242.287 13.216 -998.714

-3703.6 4.09262e-12 233.752
4.09262e-12 -3582.51 1.14659e-13
233.752 1.14659e-13 -3575.96

-3703.6 4.09262e-12 233.752
4.09262e-12 -3582.51 1.14659e-13
233.752 1.14659e-13 -3575.96

-2918.13 324.445 -266.957
324.445 -2206.12 128.443
-266.957 128.443 -1541.71

-4173.96 432.367 -238.058
432.367 -4019.99 -12.8547
-238.058 -12.8547 -4036.26

-4173.96 432.367 -238.058
432.367 -4019.99 -12.8547
-238.058 -12.8547 -4036.26

-1460.95 448.674 -244.033
448.674 -387.806 -38.1779
-244.033 -38.1779 -924.243

-1539.75 384.325 -231.885
384.325 11.8755 25.7465
-231.885 25.7465 -3.67197

-1335.25 324.626 -173.247
324.626 50.9167 25.6985
-173.247 25.6985 410.888

-2105.27 355.213 -216.578
355.213 -133.91 54.1899
-216.578 54.1899 369.906

-1444.61 349.954 -201.859
349.954 108.522 28.0197
-201.859 28.0197 92.6684

-1239.7 289.914 -142.348
289.914 146.987 27.7703
-142.348 27.7703 508.105

-1404.15 280.395 -143.013
280.395 516.667 18.0723
-143.013 18.0723 592.964

-3035.84 303.61 -178.522
303.61 -717.37 88.665
-178.522 88.665 -51.4901

-3131.79 306.055 -175.262
306.055 -563.773 85.6088
-175.262 85.6088 -438.761

-1404.18 -280.386 143.025
-280.386 516.637 18.0742
143.025 18.0742 592.941

-3036.14 -303.594 178.536
-303.594 -717.701 88.6632
178.536 88.6632 -51.8291

-3132.1 -306.036 175.272
-306.036 -564.106 85.6072
175.272 85.6072 -439.096

-2104.93 -355.219 216.597
-355.219 -133.582 54.1893
216.597 54.1893 370.258

-1444.36 -349.959 201.879
-349.959 108.752 28.0194
201.879 28.0194 92.9156

-1239.36 -289.918 142.368
-289.918 147.308 27.7684
142.368 27.7684 508.458

-1460.52 -448.668 244.03
-448.668 -387.409 -38.1788
244.03 -38.1788 -923.839

-1538.97 -384.325 231.893
-384.325 12.6583 25.7479
231.893 25.7479 -2.87316

-1334.37 -324.624 173.253
-324.624 51.7858 25.6982
173.253 25.6982 411.797

-2917.2 -324.446 266.972
-324.446 -2205.18 128.452
266.972 128.452 -1540.74

-4173.53 -432.364 238.057
-432.364 -4019.57 -12.8541
238.057 -12.8541 -4035.84

-4173.53 -432.364 238.057
-432.364 -4019.57 -12.8541
238.057 -12.8541 -4035.84

-1929.24 -439.379 -230.543
-439.379 -1322.99 49.7463
-230.543 49.7463 -768.746

-4173.96 -432.367 -238.058
-432.367 -4019.99 12.8547
-238.058 12.8547 -4036.26

-4173.96 -432.367 -238.058
-432.367 -4019.99 12.8547
-238.058 12.8547 -4036.26

-1460.95 -448.674 -244.033
-448.674 -387.806 38.1779
-244.033 38.1779 -924.243

-1195.06 -436.206 -250.973
-436.206 371.742 53.1741
-250.973 53.1741 355.317

-1183.6 -448.465 -238.582
-448.465 322.56 52.9148
-238.582 52.9148 429.789

-2308.38 -352.172 -215.442
-352.172 -358.165 15.1593
-215.442 15.1593 132.209

-1646.76 -401.155 -245.486
-401.155 -97.5708 51.9308
-245.486 51.9308 -112.132

-1635.33 -413.182 -233.382
-413.182 -145.576 51.6911
-233.382 51.6911 -38.8656

-1927.57 -394.317 -229.691
-394.317 375.251 52.5342
-229.691 52.5342 40.1084

-3340.1 -303.21 -174.214
-303.21 -798.349 -16.8709
-174.214 -16.8709 -690.723

-3331.57 -303.295 -174.328
-303.295 -792.24 -17.0661
-174.328 -17.0661 -676.891

-1927.34 394.307 229.682
394.307 375.478 52.5347
229.682 52.5347 40.3139

-3340.41 303.191 174.189
303.191 -798.683 -16.8708
174.189 -16.8708 -691.059

-3331.87 303.276 174.303
303.276 -792.574 -17.0661
174.303 -17.0661 -677.227

-2308.05 352.178 215.423
352.178 -357.836 15.1601
215.423 15.1601 132.561

-1646.12 401.167 245.477
401.167 -96.9534 51.9326
245.477 51.9326 -111.519

-1634.67 413.191 233.378
413.191 -144.937 51.6925
233.378 51.6925 -38.2251

-1460.52 448.668 244.03
448.668 -387.409 38.1788
244.03 38.1788 -923.839

-1194.33 436.206 250.965
436.206 372.453 53.1759
250.965 53.1759 356.024

-1182.85 448.461 238.579
448.461 323.292 52.9162
238.579 52.9162 430.524

-1928.68 439.377 230.538
439.377 -1322.46 49.7474
230.538 49.7474 -768.212

-4173.53 432.364 238.057
432.364 -4019.57 12.8541
238.057 12.8541 -4035.84

-4173.53 432.364 238.057
432.364 -4019.57 12.8541
238.057 12.8541 -4035.84

-1543.24 -38.293 -242.291
-38.293 -477.734 -13.2159
-242.291 -13.2159 -999.112

-3703.62 0 -233.76
0 -3582.53 0
-233.76 0 -3575.98

-3703.62 0 -233.76
0 -3582.53 0
-233.76 0 -3575.98

-1676.67 0 -224.903
0 -1115.16 0
-224.903 0 -560.476

-1223.35 -0.768466 -229.521
-0.768466 305.076 0.00852341
-229.521 0.00852341 369.698

-1275.02 -21.2304 -249.028
-21.2304 282.252 -0.919033
-249.028 -0.919033 278.417

-2500.4 0.0131433 -214.945
0.0131433 -171.987 -0.000152553
-214.945 -0.000152553 -567.279

-1673.9 24.7558 -224.544
24.7558 -162.344 -0.280813
-224.544 -0.280813 -98.3565

-1725.63 4.71399 -243.606
4.71399 -185.919 -1.21128
-243.606 -1.21128 -189

-2384.21 39.5067 -214.432
39.5067 -444.948 -37.875
-214.432 -37.875 53.7125

-3780.9 0.0306648 -166.649
0.0306648 -1267.03 -1.8613
-166.649 -1.8613 -1160.46

-3701.05 0.0122877 -167.061
0.0122877 -1133.56 -0.0001245
-167.061 -0.0001245 -1107.75

-2383.88 -39.4854 214.413
-39.4854 -444.626 -37.8748
214.413 -37.8748 54.0573

-3780.95 -0.00205643 166.628
-0.00205643 -1267.09 -1.861
166.628 -1.861 -1160.52

-3701.11 0.0122877 167.035
0.0122877 -1133.62 0.000124482
167.035 0.000124482 -1107.81

-2499.9 0.0131437 214.937
0.0131437 -171.46 0.000152543
214.937 0.000152543 -566.781

-1673.28 -24.7318 224.537
-24.7318 -161.749 -0.280515
224.537 -0.280515 -97.7645

-1724.99 -4.69109 243.598
-4.69109 -185.308 -1.21073
243.598 -1.21073 -188.394

-1676.39 1.01343e-13 224.891
1.01343e-13 -1114.9 4.86446e-12
224.891 4.86446e-12 -560.234

-1222.64 0.778817 229.514
0.778817 305.765 0.00863737
229.514 0.00863737 370.385

-1274.29 21.2398 249.02
21.2398 282.956 -0.918676
249.02 -0.918676 279.117

-1542.83 38.3022 242.287
38.3022 -477.343 -13.216
242.287 -13.216 -998.714

-3703.6 4.09262e-12 233.752
4.09262e-12 -3582.51 1.14659e-13
233.752 1.14659e-13 -3575.96

-3703.6 4.09262e-12 233.752
4.09262e-12 -3582.51 1.14659e-13
233.752 1.14659e-13 -3575.96

-1676.67 0 -224.903
0 -1115.16 0
-224.903 0 -560.476

-3703.62 0 -233.76
0 -3582.53 0
-233.76 0 -3575.98

-3703.62 0 -233.76
0 -3582.53 0
-233.76 0 -3575.98

-1543.24 38.293 -242.291
38.293 -477.734 13.2159
-242.291 13.2159 -999.112

-1275.02 21.2304 -249.028
21.2304 282.252 0.919033
-249.028 0.919033 278.417

-1223.35 0.768466 -229.521
0.768466 305.076 -0.00852341
-229.521 -0.00852341 369.698

-2384.21 -39.5067 -214.432
-39.5067 -444.948 37.875
-214.432 37.875 53.7125

-1725.63 -4.71399 -243.606
-4.71399 -185.919 1.21128
-243.606 1.21128 -189

-1673.9 -24.7558 -224.544
-24.7558 -162.344 0.280813
-224.544 0.280813 -98.3565

-2500.4 -0.0131433 -214.945
-0.0131433 -171.987 0.000152553
-214.945 0.000152553 -567.279

-3701.05 -0.0122877 -167.061
-0.0122877 -1133.56 0.0001245
-167.061 0.0001245 -1107.75

-3780.9 -0.0306648 -166.649
-0.0306648 -1267.03 1.8613
-166.649 1.8613 -1160.46

-2499.9 -0.0131437 214.937
-0.0131437 -171.46 -0.000152543
214.937 -0.000152543 -566.781

-3701.11 -0.0122877 167.035
-0.0122877 -1133.62 -0.000124482
167.035 -0.000124482 -1107.81

-3780.95 0.00205643 166.628
0.00205643 -1267.09 1.861
166.628 1.861 -1160.52

-2383.88 39.4854 214.413
39.4854 -444.626 37.8748
214.413 37.8748 54.0573

-1724.99 4.69109 243.598
4.69109 -185.308 1.21073
243.598 1.21073 -188.394

-1673.28 24.7318 224.537
24.7318 -161.749 0.280515
224.537 0.280515 -97.7645

-1542.83 -38.3022 242.287
-38.3022 -477.343 13.216
242.287 13.216 -998.714

-1274.29 -21.2398 249.02
-21.2398 282.956 0.918676
249.02 0.918676 279.117

-1222.64 -0.778817 229.514
-0.778817 305.765 -0.00863737
229.514 -0.00863737 370.385

-1676.39 1.01343e-13 224.891
1.01343e-13 -1114.9 4.86446e-12
224.891 4.86446e-12 -560.234

-3703.6 4.09262e-12 233.752
4.09262e-12 -3582.51 1.14659e-13
233.752 1.14659e-13 -3575.96

-3703.6 4.09262e-12 233.752
4.09262e-12 -3582.51 1.14659e-13
233.752 1.14659e-13 -3575.96

-1460.95 448.674 -244.033
448.674 -387.806 -38.1779
-244.033 -38.1779 -924.243

-4173.96 432.367 -238.058
432.367 -4019.99 -12.8547
-238.058 -12.8547 -4036.26

-4173.96 432.367 -238.058
432.367 -4019.99 -12.8547
-238.058 -12.8547 -4036.26

-1929.24 439.379 -230.543
439.379 -1322.99 -49.7463
-230.543 -49.7463 -768.746

-1183.6 448.465 -238.582
448.465 322.56 -52.9148
-238.582 -52.9148 429.789

-1195.06 436.206 -250.973
436.206 371.742 -53.1741
-250.973 -53.1741 355.317

-1927.57 394.317 -229.691
394.317 375.251 -52.5342
-229.691 -52.5342 40.1084

-1635.33 413.182 -233.382
413.182 -145.576 -51.6911
-233.382 -51.6911 -38.8656

-1646.76 401.155 -245.486
401.155 -97.5708 -51.9308
-245.486 -51.9308 -112.132

-2308.38 352.172 -215.442
352.172 -358.165 -15.1593
-215.442 -15.1593 132.209

-3331.57 303.295 -174.328
303.295 -792.24 17.0661
-174.328 17.0661 -676.891

-3340.1 303.21 -174.214
303.21 -798.349 16.8709
-174.214 16.8709 -690.723

-2308.05 -352.178 215.423
-352.178 -357.836 -15.1601
215.423 -15.1601 132.561

-3331.87 -303.276 174.303
-303.276 -792.574 17.0661
174.303 17.0661 -677.227

-3340.41 -303.191 174.189
-303.191 -798.683 16.8708
174.189 16.8708 -691.059

-1927.34 -394.307 229.682
-394.307 375.478 -52.5347
229.682 -52.5347 40.3139

-1634.67 -413.191 233.378
-413.191 -144.937 -51.6925
233.378 -51.6925 -38.2251

-1646.12 -401.167 245.477
-401.167 -96.9534 -51.9326
245.477 -51.9326 -111.519

-1928.68 -439.377 230.538
-439.377 -1322.46 -49.7474
230.538 -49.7474 -768.212

-1182.85 -448.461 238.579
-448.461 323.292 -52.9162
238.579 -52.9162 430.524

-1194.33 -436.206 250.965
-436.206 372.453 -53.1759
250.965 -53.1759 356.024

-1460.52 -448.668 244.03
-448.668 -387.409 -38.1788
244.03 -38.1788 -923.839

-4173.53 -432.364 238.057
-432.364 -4019.57 -12.8541
238.057 -12.8541 -4035.84

-4173.53 -432.364 238.057
-432.364 -4019.57 -12.8541
238.057 -12.8541 -4035.84

-1460.95 -448.674 244.033
-448.674 -387.806 -38.1779
244.033 -38.1779 -924.243

-4173.96 -432.367 238.058
-432.367 -4019.99 -12.8547
238.058 -12.8547 -4036.26

-4173.96 -432.367 238.058
-432.367 -4019.99 -12.8547
238.058 -12.8547 -4036.26

-1929.24 -439.379 230.543
-439.379 -1322.99 -49.7463
230.543 -49.7463 -768.746

-1183.6 -448.465 238.582
-448.465 322.56 -52.9148
238.582 -52.9148 429.789

-1195.06 -436.206 250.973
-436.206 371.742 -53.1741
250.973 -53.1741 355.317

-1927.57 -394.317 229.691
-394.317 375.251 -52.5342
229.691 -52.5342 40.1084

-1635.33 -413.182 233.382
-413.182 -145.576 -51.6911
233.382 -51.6911 -38.8656

-1646.76 -401.155 245.486
-401.155 -97.5708 -51.9308
245.486 -51.9308 -112.132

-2308.38 -352.172 215.442
-352.172 -358.165 -15.1593
215.442 -15.1593 132.209

-3331.57 -303.295 174.328
-303.295 -792.24 17.0661
174.328 17.0661 -676.891

-3340.1 -303.21 174.214
-303.21 -798.349 16.8709
174.214 16.8709 -690.723

-2308.05 352.178 -215.423
352.178 -357.836 -15.1601
-215.423 -15.1601 132.561

-3331.87 303.276 -174.303
303.276 -792.574 17.0661
-174.303 17.0661 -677.227

-3340.41 303.191 -174.189
303.191 -798.683 16.8708
-174.189 16.8708 -691.059

-1927.34 394.307 -229.682
394.307 375.478 -52.5347
-229.682 -52.5347 40.3139

-1634.67 413.191 -233.378
413.191 -144.937 -51.6925
-233.378 -51.6925 -38.2251

-1646.12 401.167 -245.477
401.167 -96.9534 -51.9326
-245.477 -51.9326 -111.519

-1928.68 439.377 -230.538
439.377 -1322.46 -49.7474
-230.538 -49.7474 -768.212

-1182.85 448.461 -238.579
448.461 323.292 -52.9162
-238.579 -52.9162 430.524

-1194.33 436.206 -250.965
436.206 372.453 -53.1759
-250.965 -53.1759 356.024

-1460.52 448.668 -244.03
448.668 -387.409 -38.1788
-244.03 -38.1788 -923.839

-4173.53 432.364 -238.057
432.364 -4019.57 -12.8541
-238.057 -12.8541 -4035.84

-4173.53 432.364 -238.057
432.364 -4019.57 -12.8541
-238.057 -12.8541 -4035.84

-1676.67 0 224.903
0 -1115.16 0
224.903 0 -560.476

-3703.62 0 233.76
0 -3582.53 0
233.76 0 -3575.98

-3703.62 0 233.76
0 -3582.53 0
233.76 0 -3575.98

-1543.24 -38.293 242.291
-38.293 -477.734 13.2159
242.291 13.2159 -999.112

-1275.02 -21.2304 249.028
-21.2304 282.252 0.919033
249.028 0.919033 278.417

-1223.35 -0.768466 229.521
-0.768466 305.076 -0.00852341