# vtk DataFile Version 2.0
Unstructured Grid
ASCII
DATASET UNSTRUCTURED_GRID
POINTS 729 double
0.000000 0.000000 0.000000
0.000000 0.000000 0.050000
0.000000 0.000000 0.100000
0.000000 0.000000 0.150000
0.000000 0.000000 0.200000
0.000000 0.050000 0.000000
0.000000 0.050000 0.050000
0.000000 0.050000 0.100000
0.000000 0.050000 0.150000
0.000000 0.050000 0.200000
0.000000 0.100000 0.000000
0.000000 0.100000 0.050000
0.000000 0.100000 0.100000
0.000000 0.100000 0.150000
0.000000 0.100000 0.200000
0.000000 0.150000 0.000000
0.000000 0.150000 0.050000
0.000000 0.150000 0.100000
0.000000 0.150000 0.150000
0.000000 0.150000 0.200000
0.000000 0.200000 0.000000
0.000000 0.200000 0.050000
0.000000 0.200000 0.100000
0.000000 0.200000 0.150000
0.000000 0.200000 0.200000
0.035837 -0.012325 -0.012793
0.037539 -0.013672 0.043511
0.038866 -0.014158 0.100000
0.037539 -0.013672 0.156489
0.035837 -0.012325 0.212793
0.038143 0.043761 -0.013975
0.040940 0.043545 0.043245
0.041145 0.043096 0.100000
0.040940 0.043545 0.156755
0.038143 0.043761 0.213975
0.038155 0.100000 -0.014316
0.040812 0.100000 0.042888
0.041615 0.100000 0.100000
0.040812 0.100000 0.157112
0.038155 0.100000 0.214316
0.038143 0.156239 -0.013975
0.040940 0.156455 0.043245
0.041145 0.156904 0.100000
0.040940 0.156455 0.156755
0.038143 0.156239 0.213975
0.035837 0.212325 -0.012793
0.037539 0.213672 0.043511
0.038866 0.214158 0.100000
0.037539 0.213672 0.156489
0.035837 0.212325 0.212793
0.075000 -0.014721 -0.014706
0.075000 -0.015220 0.041872
0.075000 -0.016051 0.100000
0.075000 -0.015220 0.158128
0.075000 -0.014721 0.214706
0.075000 0.042046 -0.015916
0.075000 0.041885 0.041692
0.075000 0.041357 0.100000
0.075000 0.041885 0.158308
0.075000 0.042046 0.215916
0.075000 0.100000 -0.016588
0.075000 0.100000 0.041175
0.075000 0.100000 0.100000
0.075000 0.100000 0.158825
0.075000 0.100000 0.216588
0.075000 0.157954 -0.015916
0.075000 0.158115 0.041692
0.075000 0.158643 0.100000
0.075000 0.158115 0.158308
0.075000 0.157954 0.215916
0.075000 0.214721 -0.014706
0.075000 0.215220 0.041872
0.075000 0.216051 0.100000
0.075000 0.215220 0.158128
0.075000 0.214721 0.214706
0.114163 -0.012325 -0.012793
0.112461 -0.013672 0.043511
0.111134 -0.014158 0.100000
0.112461 -0.013672 0.156489
0.114163 -0.012325 0.212793
0.111857 0.043761 -0.013975
0.109060 0.043545 0.043245
0.108855 0.043096 0.100000
0.109060 0.043545 0.156755
0.111857 0.043761 0.213975
0.111845 0.100000 -0.014316
0.109188 0.100000 0.042888
0.108385 0.100000 0.100000
0.109188 0.100000 0.157112
0.111845 0.100000 0.214316
0.111857 0.156239 -0.013975
0.109060 0.156455 0.043245
0.108855 0.156904 0.100000
0.109060 0.156455 0.156755
0.111857 0.156239 0.213975
0.114163 0.212325 -0.012793
0.112461 0.213672 0.043511
0.111134 0.214158 0.100000
0.112461 0.213672 0.156489
0.114163 0.212325 0.212793
0.150000 0.000000 0.000000
0.150000 0.000000 0.050000
0.150000 0.000000 0.100000
0.150000 0.000000 0.150000
0.150000 0.000000 0.200000
0.150000 0.050000 0.000000
0.150000 0.050000 0.050000
0.150000 0.050000 0.100000
0.150000 0.050000 0.150000
0.150000 0.050000 0.200000
0.150000 0.100000 0.000000
0.150000 0.100000 0.050000
0.150000 0.100000 0.100000
0.150000 0.100000 0.150000
0.150000 0.100000 0.200000
0.150000 0.150000 0.000000
0.150000 0.150000 0.050000
0.150000 0.150000 0.100000
0.150000 0.150000 0.150000
0.150000 0.150000 0.200000
0.150000 0.200000 0.000000
0.150000 0.200000 0.050000
0.150000 0.200000 0.100000
0.150000 0.200000 0.150000
0.150000 0.200000 0.200000
0.000000 0.050000 0.025000
0.024588 0.019416 0.015468
0.023255 0.045728 0.015737
0.024630 0.018999 0.045137
0.023638 0.045075 0.045045
0.040819 0.015323 0.043665
0.000000 0.025000 0.025000
0.000000 0.025000 0.050000
0.024496 -0.013376 0.044869
0.000000 0.025000 0.000000
0.000000 0.000000 0.025000
0.023847 -0.012765 0.014684
0.017095 -0.009369 -0.017629
0.019588 0.019583 -0.014459
0.037887 -0.012841 0.014664
0.038618 0.016043 -0.013423
0.018956 0.045569 -0.013625
0.041227 0.016402 0.014563
0.040611 0.044166 0.013998
0.057956 0.013590 0.013683
0.055974 -0.014302 0.013432
0.057664 0.013201 -0.014651
0.055497 -0.014583 -0.014413
0.075000 0.012853 -0.014721
0.057296 0.042084 -0.015782
0.057865 0.042565 0.012443
0.058415 0.012653 0.042021
0.058523 0.042092 0.041441
0.075000 0.042376 0.012802
0.056232 -0.015215 0.041781
0.075000 0.012542 0.042217
0.075000 0.013296 0.013870
0.075000 -0.014499 0.013555
0.092044 0.013590 0.013683
0.092135 0.042565 0.012443
0.091585 0.012653 0.042021
0.091477 0.042092 0.041441
0.109181 0.015323 0.043665
0.093768 -0.015215 0.041781
0.094026 -0.014302 0.013432
0.094503 -0.014583 -0.014413
0.092336 0.013201 -0.014651
0.112113 -0.012841 0.014664
0.111382 0.016043 -0.013423
0.092704 0.042084 -0.015782
0.108773 0.016402 0.014563
0.109389 0.044166 0.013998
0.125412 0.019416 0.015468
0.126153 -0.012765 0.014684
0.130412 0.019583 -0.014459
0.132905 -0.009369 -0.017629
0.150000 0.025000 0.000000
0.131044 0.045569 -0.013625
0.126745 0.045728 0.015737
0.125370 0.018999 0.045137
0.126362 0.045075 0.045045
0.150000 0.050000 0.025000
0.125504 -0.013376 0.044869
0.150000 0.025000 0.050000
0.150000 0.025000 0.025000
0.150000 0.000000 0.025000
0.000000 0.075000 0.000000
0.019100 0.100000 -0.016678
0.024391 0.100000 0.013855
0.019178 0.071160 -0.015528
0.024418 0.072029 0.014766
0.041228 0.100000 0.012933
0.000000 0.075000 0.025000
0.000000 0.100000 0.025000
0.024714 0.100000 0.044837
0.000000 0.075000 0.050000
0.024592 0.071102 0.044701
0.041261 0.071763 0.042870
0.041100 0.071937 0.013073
0.038338 0.071526 -0.014875
0.057797 0.071584 0.011746
0.058551 0.071579 0.040996
0.057426 0.071248 -0.016388
0.057056 0.100000 -0.016303
0.057588 0.100000 0.011877
0.075000 0.071209 -0.016486
0.075000 0.100000 0.012060
0.057989 0.100000 0.041115
0.075000 0.071313 0.012012
0.075000 0.071349 0.041159
0.092944 0.100000 -0.016303
0.092412 0.100000 0.011877
0.092574 0.071248 -0.016388
0.092203 0.071584 0.011746
0.108772 0.100000 0.012933
0.092011 0.100000 0.041115
0.091449 0.071579 0.040996
0.108739 0.071763 0.042870
0.108900 0.071937 0.013073
0.111662 0.071526 -0.014875
0.125582 0.072029 0.014766
0.125408 0.071102 0.044701
0.130822 0.071160 -0.015528
0.130900 0.100000 -0.016678
0.125609 0.100000 0.013855
0.150000 0.075000 0.000000
0.150000 0.100000 0.025000
0.125286 0.100000 0.044837
0.150000 0.075000 0.025000
0.150000 0.075000 0.050000
0.000000 0.150000 0.025000
0.024418 0.127971 0.014766
0.023255 0.154272 0.015737
0.024592 0.128898 0.044701
0.023638 0.154925 0.045045
0.041261 0.128237 0.042870
0.000000 0.125000 0.025000
0.000000 0.125000 0.050000
0.000000 0.125000 0.000000
0.019178 0.128840 -0.015528
0.038338 0.128474 -0.014875
0.018956 0.154431 -0.013625
0.041100 0.128063 0.013073
0.040611 0.155834 0.013998
0.057797 0.128416 0.011746
0.057426 0.128752 -0.016388
0.075000 0.128791 -0.016486
0.057296 0.157916 -0.015782
0.057865 0.157435 0.012443
0.058551 0.128421 0.040996
0.058523 0.157908 0.041441
0.075000 0.157624 0.012802
0.075000 0.128651 0.041159
0.075000 0.128687 0.012012
0.092203 0.128416 0.011746
0.092135 0.157435 0.012443
0.091449 0.128421 0.040996
0.091477 0.157908 0.041441
0.108739 0.128237 0.042870
0.092574 0.128752 -0.016388
0.111662 0.128474 -0.014875
0.092704 0.157916 -0.015782
0.108900 0.128063 0.013073
0.109389 0.155834 0.013998
0.125582 0.127971 0.014766
0.130822 0.128840 -0.015528
0.150000 0.125000 0.000000
0.131044 0.154431 -0.013625
0.126745 0.154272 0.015737
0.125408 0.128898 0.044701
0.126362 0.154925 0.045045
0.150000 0.150000 0.025000
0.150000 0.125000 0.050000
0.150000 0.125000 0.025000
0.000000 0.175000 0.000000
0.017095 0.209369 -0.017629
0.023847 0.212765 0.014684
0.019588 0.180417 -0.014459
0.024588 0.180584 0.015468
0.037887 0.212841 0.014664
0.000000 0.175000 0.025000
0.000000 0.200000 0.025000
0.024496 0.213376 0.044869
0.000000 0.175000 0.050000
0.024630 0.181001 0.045137
0.040819 0.184677 0.043665
0.041227 0.183598 0.014563
0.038618 0.183957 -0.013423
0.057956 0.186410 0.013683
0.058415 0.187347 0.042021
0.057664 0.186799 -0.014651
0.055497 0.214583 -0.014413
0.055974 0.214302 0.013432
0.075000 0.187147 -0.014721
0.075000 0.214499 0.013555
0.056232 0.215215 0.041781
0.075000 0.186704 0.013870
0.075000 0.187458 0.042217
0.094503 0.214583 -0.014413
0.094026 0.214302 0.013432
0.092336 0.186799 -0.014651
0.092044 0.186410 0.013683
0.112113 0.212841 0.014664
0.093768 0.215215 0.041781
0.091585 0.187347 0.042021
0.109181 0.184677 0.043665
0.108773 0.183598 0.014563
0.111382 0.183957 -0.013423
0.125412 0.180584 0.015468
0.125370 0.181001 0.045137
0.130412 0.180417 -0.014459
0.132905 0.209369 -0.017629
0.126153 0.212765 0.014684
0.150000 0.175000 0.000000
0.150000 0.200000 0.025000
0.125504 0.213376 0.044869
0.150000 0.175000 0.025000
0.150000 0.175000 0.050000
0.000000 0.025000 0.100000
0.024746 0.018660 0.074694
0.024343 0.018006 0.100000
0.024101 -0.014393 0.073870
0.023168 -0.012757 0.100000
0.038218 -0.014552 0.071523
0.000000 0.025000 0.075000
0.000000 0.000000 0.075000
0.000000 0.050000 0.075000
0.023552 0.044823 0.074291
0.041452 0.043195 0.071917
0.022787 0.044676 0.100000
0.042063 0.014857 0.072112
0.041938 0.014573 0.100000
0.059329 0.041634 0.070404
0.059479 0.011916 0.070359
0.075000 0.041487 0.070587
0.059483 0.041521 0.100000
0.059643 0.011880 0.100000
0.057335 -0.015838 0.070243
0.057440 -0.015943 0.100000
0.075000 0.011531 0.100000
0.075000 -0.015994 0.070358
0.075000 0.011652 0.070587
0.090521 0.011916 0.070359
0.090357 0.011880 0.100000
0.092665 -0.015838 0.070243
0.092560 -0.015943 0.100000
0.111782 -0.014552 0.071523
0.090671 0.041634 0.070404
0.108548 0.043195 0.071917
0.090517 0.041521 0.100000
0.107937 0.014857 0.072112
0.108062 0.014573 0.100000
0.126448 0.044823 0.074291
0.125254 0.018660 0.074694
0.150000 0.050000 0.075000
0.127213 0.044676 0.100000
0.125657 0.018006 0.100000
0.125899 -0.014393 0.073870
0.126832 -0.012757 0.100000
0.150000 0.025000 0.100000
0.150000 0.000000 0.075000
0.150000 0.025000 0.075000
0.024520 0.070969 0.074499
[...]
POINT_DATA 729
VECTORS displacement float
0.000000 0.000000 0.000000
0.000000 0.000000 0.000000
0.000000 0.000000 0.000000
0.000000 0.000000 0.000000
0.000000 0.000000 0.000000
0.000000 0.000000 0.000000
0.000000 0.000000 0.000000
0.000000 0.000000 0.000000
0.000000 0.000000 0.000000
0.000000 0.000000 0.000000
0.000000 0.000000 0.000000
0.000000 0.000000 0.000000
0.000000 0.000000 0.000000
0.000000 0.000000 0.000000
0.000000 0.000000 0.000000
0.000000 0.000000 0.000000
0.000000 0.000000 0.000000
0.000000 0.000000 0.000000
0.000000 0.000000 0.000000
0.000000 0.000000 0.000000
0.000000 0.000000 0.000000
0.000000 0.000000 0.000000
0.000000 0.000000 0.000000
0.000000 0.000000 0.000000
0.000000 0.000000 0.000000
-0.014163 -0.012325 -0.012793
-0.012461 -0.013672 -0.006489
-0.011134 -0.014158 -0.000000
-0.012461 -0.013672 0.006489
-0.014163 -0.012325 0.012793
-0.011857 -0.006239 -0.013975
-0.009060 -0.006455 -0.006755
-0.008855 -0.006904 -0.000000
-0.009060 -0.006455 0.006755
-0.011857 -0.006239 0.013975
-0.011845 0.000000 -0.014316
-0.009188 -0.000000 -0.007112
-0.008385 -0.000000 -0.000000
-0.009188 -0.000000 0.007112
-0.011845 -0.000000 0.014316
-0.011857 0.006239 -0.013975
-0.009060 0.006455 -0.006755
-0.008855 0.006904 0.000000
-0.009060 0.006455 0.006755
-0.011857 0.006239 0.013975
-0.014163 0.012325 -0.012793
-0.012461 0.013672 -0.006489
-0.011134 0.014158 0.000000
-0.012461 0.013672 0.006489
-0.014163 0.012325 0.012793
-0.025000 -0.014721 -0.014706
-0.025000 -0.015220 -0.008128
-0.025000 -0.016051 -0.000000
-0.025000 -0.015220 0.008128
-0.025000 -0.014721 0.014706
-0.025000 -0.007954 -0.015916
-0.025000 -0.008115 -0.008308
-0.025000 -0.008643 0.000000
-0.025000 -0.008115 0.008308
-0.025000 -0.007954 0.015916
-0.025000 0.000000 -0.016588
-0.025000 0.000000 -0.008825
-0.025000 0.000000 0.000000
-0.025000 0.000000 0.008825
-0.025000 -0.000000 0.016588
-0.025000 0.007954 -0.015916
-0.025000 0.008115 -0.008308
-0.025000 0.008643 -0.000000
-0.025000 0.008115 0.008308
-0.025000 0.007954 0.015916
-0.025000 0.014721 -0.014706
-0.025000 0.015220 -0.008128
-0.025000 0.016051 -0.000000
-0.025000 0.015220 0.008128
-0.025000 0.014721 0.014706
-0.035837 -0.012325 -0.012793
-0.037539 -0.013672 -0.006489
-0.038866 -0.014158 0.000000
-0.037539 -0.013672 0.006489
-0.035837 -0.012325 0.012793
-0.038143 -0.006239 -0.013975
-0.040940 -0.006455 -0.006755
-0.041145 -0.006904 -0.000000
-0.040940 -0.006455 0.006755
-0.038143 -0.006239 0.013975
-0.038155 0.000000 -0.014316
-0.040812 -0.000000 -0.007112
-0.041615 0.000000 0.000000
-0.040812 -0.000000 0.007112
-0.038155 -0.000000 0.014316
-0.038143 0.006239 -0.013975
-0.040940 0.006455 -0.006755
-0.041145 0.006904 -0.000000
-0.040940 0.006455 0.006755
-0.038143 0.006239 0.013975
-0.035837 0.012325 -0.012793
-0.037539 0.013672 -0.006489
-0.038866 0.014158 -0.000000
-0.037539 0.013672 0.006489
-0.035837 0.012325 0.012793
-0.050000 0.000000 0.000000
-0.050000 0.000000 0.000000
-0.050000 0.000000 0.000000
-0.050000 0.000000 0.000000
-0.050000 0.000000 0.000000
-0.050000 0.000000 0.000000
-0.050000 0.000000 0.000000
-0.050000 0.000000 0.000000
-0.050000 0.000000 0.000000
-0.050000 0.000000 0.000000
-0.050000 0.000000 0.000000
-0.050000 0.000000 0.000000
-0.050000 0.000000 0.000000
-0.050000 0.000000 0.000000
-0.050000 0.000000 0.000000
-0.050000 0.000000 0.000000
-0.050000 0.000000 0.000000
-0.050000 0.000000 0.000000
-0.050000 0.000000 0.000000
-0.050000 0.000000 0.000000
-0.050000 0.000000 0.000000
-0.050000 0.000000 0.000000
-0.050000 0.000000 0.000000
-0.050000 0.000000 0.000000
-0.050000 0.000000 0.000000
0.000000 0.000000 0.000000
-0.000412 -0.005584 -0.009532
-0.001745 -0.004272 -0.009263
-0.000370 -0.006001 -0.004863
-0.001362 -0.004925 -0.004955
-0.009181 -0.009677 -0.006335
0.000000 0.000000 0.000000
0.000000 0.000000 0.000000
-0.000504 -0.013376 -0.005131
0.000000 0.000000 0.000000
0.000000 0.000000 0.000000
-0.001153 -0.012765 -0.010316
-0.007905 -0.009369 -0.017629
-0.005412 -0.005417 -0.014459
-0.012113 -0.012841 -0.010336
-0.011382 -0.008957 -0.013423
-0.006044 -0.004431 -0.013625
-0.008773 -0.008598 -0.010437
-0.009389 -0.005834 -0.011002
-0.017044 -0.011410 -0.011317
-0.019026 -0.014302 -0.011568
-0.017336 -0.011799 -0.014651
-0.019503 -0.014583 -0.014413
-0.025000 -0.012147 -0.014721
-0.017704 -0.007916 -0.015782
-0.017135 -0.007435 -0.012557
-0.016585 -0.012347 -0.007979
-0.016477 -0.007908 -0.008559
-0.025000 -0.007624 -0.012198
-0.018768 -0.015215 -0.008219
-0.025000 -0.012458 -0.007783
-0.025000 -0.011704 -0.011130
-0.025000 -0.014499 -0.011445
-0.032956 -0.011410 -0.011317
-0.032865 -0.007435 -0.012557
-0.033415 -0.012347 -0.007979
-0.033523 -0.007908 -0.008559
-0.040819 -0.009677 -0.006335
-0.031232 -0.015215 -0.008219
-0.030974 -0.014302 -0.011568
-0.030497 -0.014583 -0.014413
-0.032664 -0.011799 -0.014651
-0.037887 -0.012841 -0.010336
-0.038618 -0.008957 -0.013423
-0.032296 -0.007916 -0.015782
-0.041227 -0.008598 -0.010437
-0.040611 -0.005834 -0.011002
-0.049588 -0.005584 -0.009532
-0.048847 -0.012765 -0.010316
-0.044588 -0.005417 -0.014459
-0.042095 -0.009369 -0.017629
-0.050000 0.000000 0.000000
-0.043956 -0.004431 -0.013625
-0.048255 -0.004272 -0.009263
-0.049630 -0.006001 -0.004863
-0.048638 -0.004925 -0.004955
-0.050000 0.000000 0.000000
-0.049496 -0.013376 -0.005131
-0.050000 0.000000 0.000000
-0.050000 0.000000 0.000000
-0.050000 0.000000 0.000000
0.000000 0.000000 0.000000
-0.005900 -0.000000 -0.016678
-0.000609 0.000000 -0.011145
-0.005822 -0.003840 -0.015528
-0.000582 -0.002971 -0.010234
-0.008772 0.000000 -0.012067
0.000000 0.000000 0.000000
0.000000 0.000000 0.000000
-0.000286 0.000000 -0.005163
0.000000 0.000000 0.000000
-0.000408 -0.003898 -0.005299
-0.008739 -0.003237 -0.007130
-0.008900 -0.003063 -0.011927
-0.011662 -0.003474 -0.014875
-0.017203 -0.003416 -0.013254
-0.016449 -0.003421 -0.009004
-0.017574 -0.003752 -0.016388
-0.017944 0.000000 -0.016303
-0.017412 0.000000 -0.013123
-0.025000 -0.003791 -0.016486
-0.025000 0.000000 -0.012940
-0.017011 -0.000000 -0.008885
-0.025000 -0.003687 -0.012988
-0.025000 -0.003651 -0.008841
-0.032056 -0.000000 -0.016303
-0.032588 0.000000 -0.013123
-0.032426 -0.003752 -0.016388
-0.032797 -0.003416 -0.013254
-0.041228 -0.000000 -0.012067
-0.032989 -0.000000 -0.008885
-0.033551 -0.003421 -0.009004
-0.041261 -0.003237 -0.007130
-0.041100 -0.003063 -0.011927
-0.038338 -0.003474 -0.014875
-0.049418 -0.002971 -0.010234
-0.049592 -0.003898 -0.005299
-0.044178 -0.003840 -0.015528
-0.044100 0.000000 -0.016678
-0.049391 0.000000 -0.011145
-0.050000 0.000000 0.000000
-0.050000 0.000000 0.000000
-0.049714 -0.000000 -0.005163
-0.050000 0.000000 0.000000
-0.050000 0.000000 0.000000
0.000000 0.000000 0.000000
-0.000582 0.002971 -0.010234
-0.001745 0.004272 -0.009263
-0.000408 0.003898 -0.005299
-0.001362 0.004925 -0.004955
-0.008739 0.003237 -0.007130
0.000000 0.000000 0.000000
0.000000 0.000000 0.000000
0.000000 0.000000 0.000000
-0.005822 0.003840 -0.015528
-0.011662 0.003474 -0.014875
-0.006044 0.004431 -0.013625
-0.008900 0.003063 -0.011927
-0.009389 0.005834 -0.011002
-0.017203 0.003416 -0.013254
-0.017574 0.003752 -0.016388
-0.025000 0.003791 -0.016486
-0.017704 0.007916 -0.015782
-0.017135 0.007435 -0.012557
-0.016449 0.003421 -0.009004
-0.016477 0.007908 -0.008559
-0.025000 0.007624 -0.012198
-0.025000 0.003651 -0.008841
-0.025000 0.003687 -0.012988
-0.032797 0.003416 -0.013254
-0.032865 0.007435 -0.012557
-0.033551 0.003421 -0.009004
-0.033523 0.007908 -0.008559
-0.041261 0.003237 -0.007130
-0.032426 0.003752 -0.016388
-0.038338 0.003474 -0.014875
-0.032296 0.007916 -0.015782
-0.041100 0.003063 -0.011927
-0.040611 0.005834 -0.011002
-0.049418 0.002971 -0.010234
-0.044178 0.003840 -0.015528
-0.050000 0.000000 0.000000
-0.043956 0.004431 -0.013625
-0.048255 0.004272 -0.009263
-0.049592 0.003898 -0.005299
-0.048638 0.004925 -0.004955
-0.050000 0.000000 0.000000
-0.050000 0.000000 0.000000
-0.050000 0.000000 0.000000
0.000000 0.000000 0.000000
-0.007905 0.009369 -0.017629
-0.001153 0.012765 -0.010316
-0.005412 0.005417 -0.014459
-0.000412 0.005584 -0.009532
-0.012113 0.012841 -0.010336
0.000000 0.000000 0.000000
0.000000 0.000000 0.000000
-0.000504 0.013376 -0.005131
0.000000 0.000000 0.000000
-0.000370 0.006001 -0.004863
-0.009181 0.009677 -0.006335
-0.008773 0.008598 -0.010437
-0.011382 0.008957 -0.013423
-0.017044 0.011410 -0.011317
-0.016585 0.012347 -0.007979
-0.017336 0.011799 -0.014651
-0.019503 0.014583 -0.014413
-0.019026 0.014302 -0.011568
-0.025000 0.012147 -0.014721
-0.025000 0.014499 -0.011445
-0.018768 0.015215 -0.008219
-0.025000 0.011704 -0.011130
-0.025000 0.012458 -0.007783
-0.030497 0.014583 -0.014413
-0.030974 0.014302 -0.011568
-0.032664 0.011799 -0.014651
-0.032956 0.011410 -0.011317
-0.037887 0.012841 -0.010336
-0.031232 0.015215 -0.008219
-0.033415 0.012347 -0.007979
-0.040819 0.009677 -0.006335
-0.041227 0.008598 -0.010437
-0.038618 0.008957 -0.013423
-0.049588 0.005584 -0.009532
-0.049630 0.006001 -0.004863
-0.044588 0.005417 -0.014459
-0.042095 0.009369 -0.017629
-0.048847 0.012765 -0.010316
-0.050000 0.000000 0.000000
-0.050000 0.000000 0.000000
-0.049496 0.013376 -0.005131
-0.050000 0.000000 0.000000
-0.050000 0.000000 0.000000
0.000000 0.000000 0.000000
-0.000254 -0.006340 -0.000306
-0.000657 -0.006994 0.000000
-0.000899 -0.014393 -0.001130
-0.001832 -0.012757 -0.000000
-0.011782 -0.014552 -0.003477
0.000000 0.000000 0.000000
0.000000 0.000000 0.000000
0.000000 0.000000 0.000000
-0.001448 -0.005177 -0.000709
-0.008548 -0.006805 -0.003083
-0.002213 -0.005324 0.000000
-0.007937 -0.010143 -0.002888
-0.008062 -0.010427 -0.000000
-0.015671 -0.008366 -0.004596
-0.015521 -0.013084 -0.004641
-0.025000 -0.008513 -0.004413
-0.015517 -0.008479 -0.000000
-0.015357 -0.013120 -0.000000
-0.017665 -0.015838 -0.004757
-0.017560 -0.015943 0.000000
-0.025000 -0.013469 -0.000000
-0.025000 -0.015994 -0.004642
-0.025000 -0.013348 -0.004413
-0.034479 -0.013084 -0.004641
-0.034643 -0.013120 0.000000
-0.032335 -0.015838 -0.004757
-0.032440 -0.015943 0.000000
-0.038218 -0.014552 -0.003477
-0.034329 -0.008366 -0.004596
-0.041452 -0.006805 -0.003083
-0.034483 -0.008479 0.000000
-0.042063 -0.010143 -0.002888
-0.041938 -0.010427 0.000000
-0.048552 -0.005177 -0.000709
-0.049746 -0.006340 -0.000306
-0.050000 0.000000 0.000000
-0.047787 -0.005324 0.000000
-0.049343 -0.006994 0.000000
-0.049101 -0.014393 -0.001130
-0.048168 -0.012757 0.000000
-0.050000 0.000000 0.000000
-0.050000 0.000000 0.000000
-0.050000 0.000000 0.000000
-0.000480 -0.004031 -0.000501
0.000000 0.000000 0.000000
0.000000 0.000000 0.000000
0.000000 0.000000 0.000000
-0.000404 0.000000 -0.000492
-0.000949 -0.003943 0.000000
-0.000852 0.000000 0.000000
-0.008401 -0.000000 -0.003357
-0.008198 -0.003611 -0.000000
-0.008006 -0.003478 -0.003117
-0.015531 -0.003613 -0.004770
-0.015977 0.000000 -0.004871
-0.015461 -0.003862 -0.000000
-0.015845 0.000000 -0.000000
-0.025000 -0.004077 0.000000
-0.025000 -0.003703 -0.004678
-0.025000 0.000000 -0.004721
-0.034469 -0.003613 -0.004770
-0.034023 0.000000 -0.004871
-0.034539 -0.003862 -0.000000
-0.034155 0.000000 0.000000
-0.041599 -0.000000 -0.003357
-0.041802 -0.003611 0.000000
-0.041994 -0.003478 -0.003117
-0.049520 -0.004031 -0.000501
-0.049596 0.000000 -0.000492
-0.049051 -0.003943 0.000000
-0.049148 -0.000000 -0.000000
-0.050000 0.000000 0.000000
-0.050000 0.000000 0.000000
-0.050000 0.000000 0.000000
0.000000 0.000000 0.000000
-0.000480 0.004031 -0.000501
-0.000949 0.003943 0.000000
0.000000 0.000000 0.000000
0.000000 0.000000 0.000000
-0.001448 0.005177 -0.000709
-0.008548 0.006805 -0.003083
-0.002213 0.005324 0.000000
-0.008006 0.003478 -0.003117
-0.008198 0.003611 -0.000000
-0.015671 0.008366 -0.004596
-0.015531 0.003613 -0.004770
-0.025000 0.008513 -0.004413
-0.015517 0.008479 0.000000
-0.015461 0.003862 0.000000
-0.025000 0.004077 0.000000
-0.025000 0.003703 -0.004678
-0.034469 0.003613 -0.004770
-0.034539 0.003862 0.000000
-0.034329 0.008366 -0.004596
-0.041452 0.006805 -0.003083
-0.034483 0.008479 0.000000
-0.041994 0.003478 -0.003117
-0.041802 0.003611 -0.000000
-0.048552 0.005177 -0.000709
-0.049520 0.004031 -0.000501
-0.050000 0.000000 0.000000
-0.047787 0.005324 -0.000000
-0.049051 0.003943 -0.000000
-0.050000 0.000000 0.000000
-0.050000 0.000000 0.000000
-0.000254 0.006340 -0.000306
0.000000 0.000000 0.000000
0.000000 0.000000 0.000000
0.000000 0.000000 0.000000
-0.000899 0.014393 -0.001130
-0.000657 0.006994 0.000000
-0.001832 0.012757 0.000000
-0.011782 0.014552 -0.003477
-0.008062 0.010427 0.000000
-0.007937 0.010143 -0.002888
-0.015521 0.013084 -0.004641
-0.017665 0.015838 -0.004757
-0.015357 0.013120 0.000000
-0.017560 0.015943 0.000000
-0.025000 0.013469 -0.000000
-0.025000 0.013348 -0.004413
-0.025000 0.015994 -0.004642
-0.034479 0.013084 -0.004641
-0.032335 0.015838 -0.004757
-0.034643 0.013120 0.000000
-0.032440 0.015943 -0.000000
-0.038218 0.014552 -0.003477
-0.041938 0.010427 -0.000000
-0.042063 0.010143 -0.002888
-0.049746 0.006340 -0.000306
-0.049101 0.014393 -0.001130
-0.049343 0.006994 -0.000000
-0.048168 0.012757 -0.000000
-0.050000 0.000000 0.000000
-0.050000 0.000000 0.000000
-0.050000 0.000000 0.000000
0.000000 0.000000 0.000000
-0.000254 -0.006340 0.000306
-0.001448 -0.005177 0.000709
-0.000370 -0.006001 0.004863
-0.001362 -0.004925 0.004955
-0.009181 -0.009677 0.006335
0.000000 0.000000 0.000000
0.000000 0.000000 0.000000
-0.000504 -0.013376 0.005131
0.000000 0.000000 0.000000
-0.000899 -0.014393 0.001130
-0.011782 -0.014552 0.003477
-0.007937 -0.010143 0.002888
-0.008548 -0.006805 0.003083
-0.015521 -0.013084 0.004641
-0.017665 -0.015838 0.004757
-0.015671 -0.008366 0.004596
-0.016585 -0.012347 0.007979
-0.016477 -0.007908 0.008559
-0.025000 -0.008513 0.004413
-0.018768 -0.015215 0.008219
-0.025000 -0.012458 0.007783
-0.025000 -0.013348 0.004413
-0.025000 -0.015994 0.004642
-0.034479 -0.013084 0.004641
-0.034329 -0.008366 0.004596
-0.033415 -0.012347 0.007979
-0.033523 -0.007908 0.008559
-0.040819 -0.009677 0.006335
-0.031232 -0.015215 0.008219
-0.032335 -0.015838 0.004757
-0.038218 -0.014552 0.003477
-0.042063 -0.010143 0.002888
-0.041452 -0.006805 0.003083
-0.049746 -0.006340 0.000306
-0.049101 -0.014393 0.001130
-0.048552 -0.005177 0.000709
-0.049630 -0.006001 0.004863
-0.048638 -0.004925 0.004955
-0.050000 0.000000 0.000000
-0.049496 -0.013376 0.005131
-0.050000 0.000000 0.000000
-0.050000 0.000000 0.000000
-0.050000 0.000000 0.000000
-0.000404 0.000000 0.000492
-0.000480 -0.004031 0.000501
-0.008401 0.000000 0.003357
0.000000 0.000000 0.000000
0.000000 0.000000 0.000000
-0.000286 0.000000 0.005163
0.000000 0.000000 0.000000
-0.000408 -0.003898 0.005299
-0.008739 -0.003237 0.007130
-0.008006 -0.003478 0.003117
-0.015531 -0.003613 0.004770
-0.016449 -0.003421 0.009004
-0.015977 0.000000 0.004871
-0.025000 -0.000000 0.004721
-0.017011 0.000000 0.008885
-0.025000 -0.003703 0.004678
-0.025000 -0.003651 0.008841
-0.034023 0.000000 0.004871
-0.034469 -0.003613 0.004770
-0.041599 0.000000 0.003357
-0.032989 -0.000000 0.008885
-0.033551 -0.003421 0.009004
-0.041261 -0.003237 0.007130
-0.041994 -0.003478 0.003117
-0.049520 -0.004031 0.000501
-0.049592 -0.003898 0.005299
-0.049596 0.000000 0.000492
-0.050000 0.000000 0.000000
-0.049714 0.000000 0.005163
-0.050000 0.000000 0.000000
-0.050000 0.000000 0.000000
0.000000 0.000000 0.000000
-0.000480 0.004031 0.000501
-0.001448 0.005177 0.000709
-0.000408 0.003898 0.005299
-0.001362 0.004925 0.004955
-0.008739 0.003237 0.007130
0.000000 0.000000 0.000000
0.000000 0.000000 0.000000
-0.008006 0.003478 0.003117
-0.008548 0.006805 0.003083
-0.015531 0.003613 0.004770
-0.015671 0.008366 0.004596
-0.016449 0.003421 0.009004
-0.016477 0.007908 0.008559
-0.025000 0.008513 0.004413
-0.025000 0.003651 0.008841
-0.025000 0.003703 0.004678
-0.034469 0.003613 0.004770
-0.034329 0.008366 0.004596
-0.033551 0.003421 0.009004
-0.033523 0.007908 0.008559
-0.041261 0.003237 0.007130
-0.041994 0.003478 0.003117
-0.041452 0.006805 0.003083
-0.049520 0.004031 0.000501
-0.048552 0.005177 0.000709
-0.049592 0.003898 0.005299
-0.048638 0.004925 0.004955
-0.050000 0.000000 0.000000
-0.050000 0.000000 0.000000
-0.050000 0.000000 0.000000
-0.000899 0.014393 0.001130
-0.000254 0.006340 0.000306
-0.011782 0.014552 0.003477
0.000000 0.000000 0.000000
0.000000 0.000000 0.000000
-0.000504 0.013376 0.005131
0.000000 0.000000 0.000000
-0.000370 0.006001 0.004863
-0.009181 0.009677 0.006335
-0.007937 0.010143 0.002888
-0.015521 0.013084 0.004641
-0.016585 0.012347 0.007979
-0.017665 0.015838 0.004757
-0.025000 0.015994 0.004642
-0.018768 0.015215 0.008219
-0.025000 0.013348 0.004413
-0.025000 0.012458 0.007783
-0.032335 0.015838 0.004757
-0.034479 0.013084 0.004641
-0.038218 0.014552 0.003477
-0.031232 0.015215 0.008219
-0.033415 0.012347 0.007979
-0.040819 0.009677 0.006335
-0.042063 0.010143 0.002888
-0.049746 0.006340 0.000306
-0.049630 0.006001 0.004863
-0.049101 0.014393 0.001130
-0.050000 0.000000 0.000000
-0.049496 0.013376 0.005131
-0.050000 0.000000 0.000000
-0.050000 0.000000 0.000000
0.000000 0.000000 0.000000
-0.000412 -0.005584 0.009532
-0.005412 -0.005417 0.014459
-0.001153 -0.012765 0.010316
-0.007905 -0.009369 0.017629
-0.012113 -0.012841 0.010336
0.000000 0.000000 0.000000
0.000000 0.000000 0.000000
0.000000 0.000000 0.000000
-0.001745 -0.004272 0.009263
-0.009389 -0.005834 0.011002
-0.006044 -0.004431 0.013625
-0.008773 -0.008598 0.010437
-0.011382 -0.008957 0.013423
-0.017135 -0.007435 0.012557
-0.017044 -0.011410 0.011317
-0.025000 -0.007624 0.012198
-0.017704 -0.007916 0.015782
-0.017336 -0.011799 0.014651
-0.019026 -0.014302 0.011568
-0.019503 -0.014583 0.014413
-0.025000 -0.012147 0.014721
-0.025000 -0.014499 0.011445
-0.025000 -0.011704 0.011130
-0.032956 -0.011410 0.011317
-0.032664 -0.011799 0.014651
-0.030974 -0.014302 0.011568
-0.030497 -0.014583 0.014413
-0.037887 -0.012841 0.010336
-0.032865 -0.007435 0.012557
-0.040611 -0.005834 0.011002
-0.032296 -0.007916 0.015782
-0.041227 -0.008598 0.010437
-0.038618 -0.008957 0.013423
-0.048255 -0.004272 0.009263
-0.049588 -0.005584 0.009532
-0.050000 0.000000 0.000000
-0.043956 -0.004431 0.013625
-0.044588 -0.005417 0.014459
-0.048847 -0.012765 0.010316
-0.042095 -0.009369 0.017629
-0.050000 0.000000 0.000000
-0.050000 0.000000 0.000000
-0.050000 0.000000 0.000000
-0.000582 -0.002971 0.010234
0.000000 0.000000 0.000000
0.000000 0.000000 0.000000
0.000000 0.000000 0.000000
-0.000609 0.000000 0.011145
-0.005822 -0.003840 0.015528
-0.005900 0.000000 0.016678
-0.008772 -0.000000 0.012067
-0.011662 -0.003474 0.014875
-0.008900 -0.003063 0.011927
-0.017203 -0.003416 0.013254
-0.017412 0.000000 0.013123
-0.017574 -0.003752 0.016388
-0.017944 -0.000000 0.016303
-0.025000 -0.003791 0.016486
-0.025000 -0.003687 0.012988
-0.025000 0.000000 0.012940
-0.032797 -0.003416 0.013254
-0.032588 0.000000 0.013123
-0.032426 -0.003752 0.016388
-0.032056 0.000000 0.016303
-0.041228 0.000000 0.012067
-0.038338 -0.003474 0.014875
-0.041100 -0.003063 0.011927
-0.049418 -0.002971 0.010234
-0.049391 0.000000 0.011145
-0.044178 -0.003840 0.015528
-0.044100 0.000000 0.016678
-0.050000 0.000000 0.000000
-0.050000 0.000000 0.000000
-0.050000 0.000000 0.000000
0.000000 0.000000 0.000000
-0.000582 0.002971 0.010234
-0.005822 0.003840 0.015528
0.000000 0.000000 0.000000
0.000000 0.000000 0.000000
-0.001745 0.004272 0.009263
-0.009389 0.005834 0.011002
-0.006044 0.004431 0.013625
-0.008900 0.003063 0.011927
-0.011662 0.003474 0.014875
-0.017135 0.007435 0.012557
-0.017203 0.003416 0.013254
-0.025000 0.007624 0.012198
-0.017704 0.007916 0.015782
-0.017574 0.003752 0.016388
-0.025000 0.003791 0.016486
-0.025000 0.003687 0.012988
-0.032797 0.003416 0.013254
-0.032426 0.003752 0.016388
-0.032865 0.007435 0.012557
-0.040611 0.005834 0.011002
-0.032296 0.007916 0.015782
-0.041100 0.003063 0.011927
-0.038338 0.003474 0.014875
-0.048255 0.004272 0.009263
-0.049418 0.002971 0.010234
-0.050000 0.000000 0.000000
-0.043956 0.004431 0.013625