# vtk DataFile Version 3.0
vtk output at time 0.8
ASCII
DATASET UNSTRUCTURED_GRID
POINTS 527 float
0 0 0 0 0 0.05 0 0 0.1 
0 0 0.15 0 0 0.2 0 0.05 0 
0 0.05 0.05 0 0.05 0.1 0 0.05 0.15 
0 0.05 0.2 0 0.1 0 0 0.1 0.05 
0 0.1 0.1 0 0.1 0.15 0 0.1 0.2 
0 0.15 0 0 0.15 0.05 0 0.15 0.1 
0 0.15 0.15 0 0.15 0.2 0 0.2 0 
0 0.2 0.05 0 0.2 0.1 0 0.2 0.15 
0 0.2 0.2 0.0369807 -0.00806261 -0.00810198 0.0407514 -0.00771252 0.0458995 
0.0417821 -0.00807141 0.0999268 0.0409859 -0.00812845 0.154001 0.0366815 -0.00838496 0.208138 
0.0405366 0.0463248 -0.00812216 0.0407683 0.0459753 0.208141 0.0417567 0.100362 -0.00789411 
0.0412767 0.0998462 0.207958 0.042186 0.154702 -0.00781868 0.0419296 0.154196 0.20826 
0.0369472 0.208619 -0.00762434 0.040774 0.207864 0.0462352 0.0420783 0.207916 0.100291 
0.0412072 0.207981 0.154347 0.0368598 0.208303 0.208217 0.0799529 -0.0100212 -0.0107265 
0.0807411 -0.0114211 0.0438173 0.0808399 -0.011305 0.0997293 0.0793311 -0.0119505 0.155599 
0.0797388 -0.0107098 0.21071 0.0796976 0.0441397 -0.0114905 0.0798112 0.0438647 0.211906 
0.0805947 0.100158 -0.0115862 0.0810757 0.099923 0.211926 0.0801192 0.156547 -0.0121996 
0.0805329 0.155738 0.212456 0.0801283 0.211355 -0.0103439 0.0803358 0.212127 0.0445926 
0.0816179 0.211468 0.100442 0.0796149 0.211418 0.156262 0.0802422 0.210333 0.211442 
0.123482 -0.00909667 -0.00861172 0.119675 -0.00888084 0.0457837 0.117965 -0.00847353 0.100134 
0.119221 -0.00857492 0.153845 0.123161 -0.00965179 0.207997 0.119241 0.0459356 -0.00957485 
0.119232 0.0451767 0.209527 0.117515 0.100289 -0.00893925 0.118383 0.0994855 0.209028 
0.118205 0.154475 -0.0086697 0.119037 0.153475 0.209038 0.123295 0.208496 -0.00804334 
0.120266 0.208615 0.046327 0.119077 0.20857 0.100393 0.11976 0.208536 0.15419 
0.123416 0.208 0.208524 0.16 0 0 0.16 0 0.05 
0.16 0 0.1 0.16 0 0.15 0.16 0 0.2 
0.16 0.05 0 0.16 0.05 0.05 0.16 0.05 0.1 
0.16 0.05 0.15 0.16 0.05 0.2 0.16 0.1 0 
0.16 0.1 0.05 0.16 0.1 0.1 0.16 0.1 0.15 
0.16 0.1 0.2 0.16 0.15 0 0.16 0.15 0.05 
0.16 0.15 0.1 0.16 0.15 0.15 0.16 0.15 0.2 
0.16 0.2 0 0.16 0.2 0.05 0.16 0.2 0.1 
0.16 0.2 0.15 0.16 0.2 0.2 0 0.025 0 
0.0175514 -0.00473283 -0.00705168 0.0213267 -0.00630367 0.0208746 0 0 0.025 
0 0.025 0.025 0.0218629 -0.00628184 0.047437 0 0.025 0.05 
0 0.025 0.075 0 0 0.075 0 0.025 0.1 
0.0217035 -0.0065258 0.0737554 0.022018 -0.00598553 0.100107 0.0218444 -0.00629429 0.12645 
0 0 0.125 0.0219435 -0.00613232 0.15259 0 0.025 0.175 
0 0.025 0.15 0 0 0.175 0 0.025 0.125 
0.0213774 -0.00636821 0.179064 0 0.025 0.2 0.0173826 -0.0048525 0.207059 
0.0221041 0.020731 0.0212023 0 0.05 0.025 0.0192232 0.0217109 -0.00610354 
0.0206641 0.0478172 -0.00534339 0.0221312 0.0749247 -0.00616681 0 0.075 0.025 
0 0.075 0 0.0221916 0.0208725 0.0477009 0 0.05 0.075 
0 0.075 0.05 0.0438435 0.073223 0.0184035 0.0227563 0.0745157 0.0207451 
0.0420179 0.0461619 0.0189321 0.0216065 0.0477377 0.0210575 0.0429777 0.0189375 0.0729458 
0.0420544 0.0193147 0.045904 0 0.075 0.075 0.0447314 0.0731032 0.0451703 
0.0429904 0.0188724 0.0998013 0.0225531 0.0206249 0.0739171 0.0227389 0.0208839 0.126336 
0.0442436 0.0181347 0.127196 0.0225831 0.0206206 0.100114 0 0.05 0.125 
0 0.075 0.125 0 0.075 0.1 0 0.05 0.175 
0.0224388 0.0209273 0.152497 0.0225385 0.0740857 0.179374 0.0218992 0.0475481 0.178998 
0.0431256 0.0728433 0.181294 0 0.075 0.15 0.0423314 0.0458433 0.181047 
0.0435932 0.0184919 0.15427 0.022144 0.0206645 0.178885 0.0219825 0.0745334 0.206375 
0.0208952 0.0476126 0.205441 0.0192383 0.0215941 0.206165 0 0.075 0.175 
0 0.075 0.2 0 0.125 0 0.0221065 0.100832 -0.00621803 
0 0.1 0.025 0.0446583 0.100395 0.0181775 0 0.125 0.025 
0 0.125 0.05 0.0230332 0.126633 0.0210451 0.0228402 0.100619 0.0209835 
0 0.1 0.075 0.0446217 0.127432 0.0183284 0 0.125 0.075 
0 0.1 0.125 0.0443135 0.154645 0.127354 0.0438962 0.127248 0.154626 
0.0434465 0.100012 0.15508 0.0439253 0.154833 0.100115 0.0446401 0.127505 0.0453854 
0.0444404 0.100365 0.0451266 0 0.125 0.1 0.0433989 0.0452433 0.0998836 
0.0442863 0.0451342 0.127237 0.0803279 0.100112 0.100074 0.0445073 0.154594 0.154596 
0.043581 0.12714 0.181397 0 0.125 0.175 0 0.125 0.15 
0.0228451 0.126386 0.179313 0.0226343 0.100336 0.179308 0 0.1 0.175 
0 0.125 0.125 0.0431862 0.0998921 0.181406 0.0443477 0.0453145 0.154515 
0.0218815 0.100499 0.206601 0 0.125 0.2 0 0.15 0.025 
0.0220904 0.152751 -0.00517827 0.0197506 0.178177 -0.00572295 0.0222059 0.178937 0.021332 
0.0221006 0.126782 -0.00576599 0 0.175 0.025 0 0.175 0 
0.0226833 0.152733 0.0213997 0.0222048 0.179061 0.0478614 0.0438973 0.154557 0.0189529 
0.0427578 0.18115 0.0462259 0 0.175 0.05 0 0.15 0.075 
0.0433969 0.181204 0.0732572 0.0226348 0.179271 0.0740446 0.0435416 0.181106 0.10015 
0.022699 0.179195 0.100249 0 0.175 0.1 0.022771 0.17909 0.12646 
0 0.175 0.075 0.0443535 0.181715 0.127415 0 0.15 0.125 
0 0.175 0.125 0.0445713 0.154573 0.0455873 0 0.15 0.175 
0.0226001 0.1525 0.179029 0.0224772 0.178884 0.152581 0.0435064 0.154093 0.181325 
0 0.175 0.15 0.0439663 0.181514 0.154425 0.0222724 0.178804 0.178988 
0.0219448 0.152481 0.205692 0.0195992 0.17796 0.206068 0 0.175 0.175 
0.0218671 0.126533 0.206241 0 0.175 0.2 0.0176862 0.204573 -0.00676306 
0.0214389 0.206112 0.0211481 0 0.2 0.025 0.0219086 0.206214 0.047573 
0 0.2 0.075 0.0221596 0.205783 0.100277 0.0219457 0.20612 0.126581 
0.0217755 0.20634 0.0739572 0 0.2 0.125 0.0220533 0.205906 0.15281 
0 0.2 0.175 0.0215735 0.205902 0.179144 0.0175761 0.204375 0.207056 
0.0391577 -0.00798515 0.018607 0.0583232 -0.00927938 -0.00926045 0.0594773 0.0176048 -0.00957605 
0.0395105 0.0191231 -0.00850434 0.0596071 -0.00928079 0.0175199 0.0608341 0.0176965 0.017337 
0.0415799 0.0192501 0.0185766 0.0610473 -0.00946348 0.072128 0.0609166 -0.00946563 0.0446184 
0.0411209 -0.00800889 0.0727946 0.0616186 -0.00968186 0.0998644 0.0411896 -0.00813028 0.127069 
0.060898 0.0172027 0.182775 0.059325 -0.00987944 0.182537 0.0604513 -0.010159 0.155033 
0.0614827 -0.0103738 0.127643 0.0416708 0.018879 0.181418 0.0390097 -0.00827084 0.181377 
0.0594159 0.0171518 0.209627 0.0580228 -0.00981404 0.20931 0.0395269 0.0187778 0.208573 
0.0601719 0.045075 -0.00986468 0.0412158 0.0732722 -0.00811378 0.04116 0.0728871 0.208161 
0.0603211 0.0447118 0.20993 0.0612799 0.0723715 -0.0100888 0.0617735 0.100172 -0.0100957 
0.0419803 0.127541 -0.00802584 0.0617809 0.127908 -0.0103764 0.0415697 0.127018 0.208263 
0.0614005 0.0997592 0.209881 0.0610769 0.0721131 0.209943 0.0613055 0.127314 0.210101 
0.0403778 0.181722 -0.00822711 0.0424639 0.181378 0.0189834 0.0613697 0.15597 -0.00985016 
0.0423175 0.181047 0.181492 0.0401083 0.181252 0.208738 0.0612746 0.155231 0.210159 
0.0391523 0.208266 0.0190834 0.0584246 0.210514 -0.00862144 0.0601065 0.183632 -0.00923807 
0.0613645 0.209657 0.0727492 0.0412882 0.207942 0.0732057 0.0597938 0.210309 0.0180749 
0.061768 0.183275 0.017635 0.0609284 0.210084 0.0452452 0.0621239 0.209698 0.100353 
0.0415153 0.207919 0.127379 0.039305 0.208077 0.181533 0.0616613 0.182697 0.18304 
0.0608868 0.210005 0.155549 0.0598886 0.209745 0.182926 0.0619472 0.210129 0.127974 
0.0583829 0.209632 0.209575 0.0599156 0.18274 0.20987 0.079942 0.01669 -0.0109135 
0.0804059 -0.0105276 0.0162207 0.101823 -0.00936201 -0.00978036 0.101012 -0.00950491 0.0170281 
0.0804903 0.0163246 0.0161169 0.100101 -0.00973057 0.044376 0.0810049 -0.0114545 0.0716628 
0.0988176 0.0448052 0.0168821 0.0804847 0.044053 0.0162205 0.0804571 0.0440705 0.155757 
0.116563 0.0455526 0.12732 0.116562 0.0453508 0.100078 0.098395 0.0448783 0.0444338 
0.0806397 0.0441025 0.0442967 0.0805687 -0.0120357 0.127598 0.0996008 -0.00993573 0.0720542 
0.0991501 -0.0104346 0.127395 0.097793 0.0445165 0.155789 0.0987848 -0.00990309 0.0999005 
0.0796792 0.0160155 0.183962 0.0796956 -0.0110158 0.18351 0.0802933 0.0440961 0.184042 
0.0988197 -0.0100177 0.155142 0.0982152 0.0441894 0.183246 0.0797522 0.016114 0.211196 
0.101483 -0.0101908 0.209146 0.100277 -0.00994159 0.182352 0.0801735 0.0720553 -0.0116434 
0.100766 0.0174256 -0.00990649 0.099988 0.0175324 0.0169413 0.100046 0.0447341 -0.0101393 
0.0987668 0.0721984 -0.0103835 0.100349 0.0166703 0.209606 0.0991221 0.0169395 0.182874 
0.0806748 0.0718837 0.21203 0.0991343 0.0716941 0.210755 0.100003 0.0440491 0.210182 
0.116367 0.100004 0.0448538 0.0983045 0.0999643 -0.0104731 0.0804173 0.128417 -0.0118419 
0.116566 0.127234 0.0451545 0.0982429 0.155947 0.0449765 0.0809991 0.156267 0.044639 
0.116068 0.0993441 0.182313 0.1162 0.0995229 0.155265 0.11557 0.126822 0.155273 
0.0808897 0.155752 0.184122 0.080619 0.155535 0.155725 0.0986697 0.155556 0.183296 
0.0978634 0.155405 0.155442 0.116347 0.126533 0.182212 0.0989523 0.099412 0.210989 
0.0811228 0.127984 0.212184 0.0802278 0.184445 -0.0111215 0.0805182 0.184597 0.0163495 
0.0992224 0.183468 0.0174053 0.100377 0.183682 -0.00960115 0.0986554 0.155879 -0.0100263 
0.117262 0.154486 0.0456515 0.098621 0.183427 0.0448318 0.0809551 0.184335 0.0442903 
0.098583 0.128071 -0.0100401 0.0801025 0.183419 0.18442 0.0802124 0.183509 0.211914 
0.0992 0.182879 0.183259 0.100611 0.182668 0.210132 0.117231 0.153563 0.182159 
0.0996361 0.154861 0.210733 0.099357 0.126965 0.211054 0.0803321 0.211681 0.0167961 
0.101037 0.210451 0.0177467 0.101995 0.210654 -0.00897596 0.0813061 0.211914 0.0724314 
0.0998494 0.210611 0.044901 0.0809263 0.211679 0.128331 0.118095 0.181689 0.100266 
0.0997302 0.210638 0.100453 0.117808 0.154904 0.100165 0.0993476 0.210229 0.128306 
0.0998486 0.210758 0.072545 0.0800818 0.210744 0.184098 0.0988068 0.20968 0.155921 
0.100604 0.209593 0.182964 0.102076 0.20963 0.20969 0.121335 -0.00905276 0.0182011 
0.120701 0.018347 -0.00946071 0.142994 -0.00483439 -0.00792141 0.14087 0.0214914 -0.00727562 
0.119061 0.0183886 0.0179431 0.137651 0.0473812 0.0467378 0.137677 0.0201687 0.0735522 
0.137472 0.0470807 0.073508 0.118102 0.0455907 0.0182011 0.138937 -0.00632416 0.0201441 
0.138254 0.0206775 0.0198749 0.118728 -0.00869203 0.0729297 0.138224 -0.00615554 0.0468828 
[...]
POINT_DATA 527
VECTORS displacement float
0 0 0
0 0 0
0 0 0
0 0 0
0 0 0
0 0 0
0 0 0
0 0 0
0 0 0
0 0 0
0 0 0
0 0 0
0 0 0
0 0 0
0 0 0
0 0 0
0 0 0
0 0 0
0 0 0
0 0 0
0 0 0
0 0 0
0 0 0
0 0 0
0 0 0
-0.0130193 -0.00806261 -0.00810198
-0.00924864 -0.00771252 -0.00410053
-0.00821794 -0.00807141 -7.31853e-05
-0.00901405 -0.00812845 0.00400101
-0.0133185 -0.00838496 0.0081377
-0.00946343 -0.00367521 -0.00812216
-0.00923167 -0.00402474 0.0081406
-0.00824331 0.000362425 -0.00789411
-0.00872329 -0.000153755 0.00795765
-0.00781398 0.0047022 -0.00781868
-0.00807038 0.0041957 0.00825972
-0.0130528 0.00861891 -0.00762434
-0.00922604 0.00786387 -0.00376476
-0.0079217 0.00791594 0.000291111
-0.00879277 0.0079809 0.00434691
-0.0131402 0.00830269 0.00821703
-0.0200471 -0.0100212 -0.0107265
-0.0192589 -0.0114211 -0.00618265
-0.0191601 -0.011305 -0.000270688
-0.0206689 -0.0119505 0.0055993
-0.0202612 -0.0107098 0.0107098
-0.0203024 -0.00586032 -0.0114905
-0.0201888 -0.00613534 0.0119057
-0.0194054 0.000157589 -0.0115862
-0.0189243 -7.70451e-05 0.0119263
-0.0198808 0.00654665 -0.0121996
-0.0194671 0.00573814 0.0124555
-0.0198717 0.011355 -0.0103439
-0.0196642 0.0121272 -0.00540741
-0.0183821 0.0114683 0.000441717
-0.0203851 0.0114179 0.00626158
-0.0197578 0.010333 0.0114418
-0.0265178 -0.00909667 -0.00861172
-0.0303246 -0.00888084 -0.00421631
-0.032035 -0.00847353 0.000133841
-0.0307792 -0.00857492 0.00384514
-0.0268386 -0.00965179 0.00799656
-0.0307593 -0.00406444 -0.00957485
-0.030768 -0.00482334 0.009527
-0.0324854 0.000288746 -0.00893925
-0.0316174 -0.000514454 0.00902803
-0.0317953 0.0044749 -0.0086697
-0.0309635 0.00347466 0.00903781
-0.0267046 0.00849584 -0.00804334
-0.0297341 0.00861461 -0.00367302
-0.0309225 0.00856986 0.000393314
-0.0302403 0.00853562 0.0041903
-0.0265844 0.00799978 0.00852419
-0.04 0 0
-0.04 0 0
-0.04 0 0
-0.04 0 0
-0.04 0 0
-0.04 0 0
-0.04 0 0
-0.04 0 0
-0.04 0 0
-0.04 0 0
-0.04 0 0
-0.04 0 0
-0.04 0 0
-0.04 0 0
-0.04 0 0
-0.04 0 0
-0.04 0 0
-0.04 0 0
-0.04 0 0
-0.04 0 0
-0.04 0 0
-0.04 0 0
-0.04 0 0
-0.04 0 0
-0.04 0 0
0 0 0
-0.00744857 -0.00473283 -0.00705168
-0.00367326 -0.00630367 -0.00412544
0 0 0
0 0 0
-0.00313711 -0.00628184 -0.00256304
0 0 0
0 0 0
0 0 0
0 0 0
-0.00329646 -0.0065258 -0.00124459
-0.00298201 -0.00598553 0.000107399
-0.00315559 -0.00629429 0.00145009
0 0 0
-0.00305646 -0.00613232 0.00259036
0 0 0
0 0 0
0 0 0
0 0 0
-0.00362263 -0.00636821 0.00406384
0 0 0
-0.00761738 -0.0048525 0.00705868
-0.00289592 -0.00426903 -0.00379774
0 0 0
-0.0057768 -0.00328906 -0.00610354
-0.00433595 -0.00218276 -0.00534339
-0.00286883 -7.5265e-05 -0.00616681
0 0 0
0 0 0
-0.00280842 -0.00412747 -0.0022991
0 0 0
0 0 0
-0.00615647 -0.001777 -0.00659649
-0.00224368 -0.00048434 -0.00425494
-0.0079821 -0.00383812 -0.00606789
-0.00339352 -0.0022623 -0.00394253
-0.0070223 -0.00606248 -0.00205422
-0.00794557 -0.00568526 -0.004096
0 0 0
-0.00526857 -0.00189678 -0.00482971
-0.00700963 -0.00612756 -0.000198735
-0.00244692 -0.00437514 -0.00108286
-0.00226107 -0.0041161 0.00133607
-0.00575638 -0.00686529 0.00219581
-0.0024169 -0.00437941 0.000114387
0 0 0
0 0 0
0 0 0
0 0 0
-0.00256121 -0.00407271 0.00249725
-0.00246149 -0.000914294 0.00437387
-0.0031008 -0.00245192 0.00399826
-0.0068744 -0.0021567 0.00629429
0 0 0
-0.00766859 -0.00415666 0.00604664
-0.0064068 -0.00650806 0.00427008
-0.00285595 -0.00433549 0.0038848
-0.00301752 -0.000466552 0.00637504
-0.00410479 -0.00238735 0.00544074
-0.00576166 -0.00340588 0.00616483
0 0 0
0 0 0
0 0 0
-0.00289352 0.000832403 -0.00621803
0 0 0
-0.00534168 0.000394748 -0.00682252
0 0 0
0 0 0
-0.00196678 0.00163301 -0.00395486
-0.00215976 0.000618997 -0.00401649
0 0 0
-0.00537826 0.00243215 -0.00667163
0 0 0
0 0 0
-0.00568653 0.00464464 0.00235371
-0.0061038 0.00224801 0.00462632
-0.00655352 1.23298e-05 0.00507968
-0.00607473 0.00483335 0.000114704
-0.00535989 0.00250502 -0.00461461
-0.00555963 0.00036471 -0.00487339
0 0 0
-0.00660113 -0.0047567 -0.000116375
-0.00571375 -0.00486583 0.00223711
-0.0196721 0.000111637 7.41323e-05
-0.00549265 0.00459375 0.00459606
-0.00641902 0.00214034 0.00639663
0 0 0
0 0 0
-0.00215485 0.00138637 0.00431341
-0.00236569 0.00033553 0.00430814
0 0 0
0 0 0
-0.00681383 -0.000107934 0.00640573
-0.00565228 -0.00468554 0.00451488
-0.00311846 0.000498982 0.00660144
0 0 0
0 0 0
-0.00290957 0.00275074 -0.00517827
-0.00524944 0.00317659 -0.00572295
-0.00279412 0.00393656 -0.00366796
-0.00289937 0.00178211 -0.00576599
0 0 0
0 0 0
-0.00231672 0.00273305 -0.00360026
-0.00279522 0.00406063 -0.00213858
-0.00610273 0.00455655 -0.00604712
-0.00724221 0.00615041 -0.0037741
0 0 0
0 0 0
-0.00660308 0.00620425 -0.00174284
-0.00236523 0.00427143 -0.000955423
-0.00645843 0.00610646 0.000150259
-0.00230095 0.00419542 0.000249369
0 0 0
-0.00222904 0.00409006 0.00145982
0 0 0
-0.00564653 0.00671469 0.00241506
0 0 0
0 0 0
-0.00542872 0.00457307 -0.00441269
0 0 0
-0.00239994 0.00249958 0.00402917
-0.00252279 0.00388437 0.00258143
-0.00649363 0.00409343 0.00632527
0 0 0
-0.00603366 0.00651362 0.00442531
-0.00272762 0.00380357 0.00398812
-0.0030552 0.00248066 0.00569179
-0.00540084 0.00296002 0.00606798
0 0 0
-0.00313291 0.00153262 0.00624087
0 0 0
-0.00731377 0.00457313 -0.00676306
-0.00356109 0.00611173 -0.0038519
0 0 0
-0.00309136 0.00621428 -0.00242697
0 0 0
-0.00284037 0.00578339 0.000277079
-0.0030543 0.00612047 0.00158098
-0.0032245 0.00634031 -0.00104283
0 0 0
-0.00294673 0.00590615 0.00281042
0 0 0
-0.00342653 0.00590231 0.00414408
-0.00742389 0.00437508 0.00705579
-0.0108423 -0.00798515 -0.00639302
-0.0166768 -0.00927938 -0.00926045
-0.0155227 -0.00739523 -0.00957605
-0.0104895 -0.00587689 -0.00850434
-0.0153929 -0.00928079 -0.00748009
-0.0141659 -0.00730354 -0.00766296
-0.00842008 -0.00574989 -0.0064234
-0.0139527 -0.00946348 -0.00287198
-0.0140834 -0.00946563 -0.0053816
-0.00887905 -0.00800889 -0.00220538
-0.0133814 -0.00968186 -0.000135611
-0.00881044 -0.00813028 0.00206874
-0.014102 -0.00779734 0.00777539
-0.015675 -0.00987944 0.00753683
-0.0145488 -0.010159 0.0050327
-0.0135173 -0.0103738 0.00264295
-0.0083292 -0.00612101 0.00641758
-0.0109903 -0.00827084 0.0063765
-0.0155841 -0.00784824 0.00962676
-0.0169772 -0.00981404 0.0093104
-0.0104731 -0.00622219 0.00857271
-0.0148281 -0.00492499 -0.00986468
-0.00878423 -0.00172778 -0.00811378
-0.00884001 -0.00211292 0.00816058
-0.0146789 -0.00528825 0.00992978
-0.0137201 -0.00262851 -0.0100888
-0.0132265 0.000171555 -0.0100957
-0.00801967 0.00254123 -0.00802584
-0.0132191 0.00290832 -0.0103764
-0.00843026 0.00201805 0.00826303
-0.0135995 -0.000240816 0.00988132
-0.0139231 -0.00288685 0.00994259
-0.0136945 0.00231441 0.0101008
-0.00962225 0.00672208 -0.00822711
-0.00753614 0.00637835 -0.00601657
-0.0136303 0.00597003 -0.00985016
-0.00768247 0.00604655 0.00649163
-0.00989172 0.00625211 0.00873788
-0.0137254 0.00523071 0.0101588
-0.0108477 0.00826612 -0.00591657
-0.0165754 0.010514 -0.00862144
-0.0148935 0.00863165 -0.00923807
-0.0136355 0.00965743 -0.00225079
-0.00871184 0.00794182 -0.00179435
-0.0152062 0.0103087 -0.00692507
-0.013232 0.00827529 -0.00736496
-0.0140716 0.0100838 -0.00475476
-0.0128761 0.00969826 0.000353221
-0.0084847 0.00791886 0.00237911
-0.010695 0.00807705 0.00653328
-0.0133387 0.00769678 0.00804006
-0.0141132 0.0100055 0.00554925
-0.0151114 0.0097446 0.00792612
-0.0130528 0.0101288 0.00297414
-0.0166171 0.00963179 0.00957532
-0.0150844 0.0077397 0.0098703
-0.020058 -0.00830998 -0.0109135
-0.0195941 -0.0105276 -0.00877931
-0.023177 -0.00936201 -0.00978036
-0.0239884 -0.00950491 -0.00797193
-0.0195097 -0.00867543 -0.00888311
-0.0248986 -0.00973057 -0.00562399
-0.0189951 -0.0114545 -0.00333722
-0.0261824 -0.00519476 -0.00811789
-0.0195153 -0.00594704 -0.00877953
-0.0195429 -0.00592946 0.00575748
-0.033437 -0.00444738 0.00231994
-0.0334382 -0.00464919 7.7854e-05
-0.026605 -0.00512172 -0.00556618
-0.0193603 -0.00589754 -0.00570331
-0.0194313 -0.0120357 0.00259786
-0.0253992 -0.00993573 -0.00294579
-0.0258499 -0.0104346 0.00239502
-0.027207 -0.0054835 0.00578929
-0.0262152 -0.00990309 -9.94958e-05
-0.0203208 -0.00898449 0.00896186
-0.0203044 -0.0110158 0.00850952
-0.0197067 -0.0059039 0.00904164
-0.0261803 -0.0100177 0.00514236
-0.0267848 -0.00581064 0.00824599
-0.0202478 -0.00888599 0.0111955
-0.0235166 -0.0101908 0.00914605
-0.0247228 -0.00994159 0.00735181
-0.0198265 -0.00294475 -0.0116434
-0.0242343 -0.00757439 -0.00990649
-0.025012 -0.00746762 -0.00805871
-0.0249539 -0.00526586 -0.0101393
-0.0262332 -0.00280163 -0.0103835
-0.0246506 -0.00832968 0.00960608
-0.0258779 -0.00806054 0.00787449
-0.0193252 -0.0031163 0.0120298
-0.0258657 -0.00330586 0.0107554
-0.0249973 -0.00595095 0.0101825
-0.0336328 3.87802e-06 -0.00514616
-0.0266955 -3.56803e-05 -0.0104731
-0.0195827 0.0034166 -0.0118419
-0.033434 0.00223394 -0.00484549
-0.0267571 0.00594748 -0.00502355
-0.0190009 0.00626669 -0.00536103
-0.0339319 -0.000655931 0.00731319
-0.0337996 -0.000477072 0.00526547
-0.0344299 0.00182161 0.00527279
-0.0191103 0.00575159 0.00912238
-0.019381 0.00553546 0.00572466
-0.0263303 0.00555624 0.00829559
-0.0271366 0.00540464 0.00544221
-0.0336528 0.00153318 0.0072116
-0.0260477 -0.000587996 0.0109891
-0.0188772 0.00298446 0.0121843
-0.0197722 0.00944531 -0.0111215
-0.0194818 0.00959745 -0.00865049
-0.0257776 0.00846838 -0.00759466
-0.0246229 0.00868243 -0.00960115
-0.0263446 0.00587885 -0.0100263
-0.032738 0.00448593 -0.00434852
-0.026379 0.00842748 -0.00516825
-0.0190449 0.00933508 -0.00570975
-0.026417 0.00307136 -0.0100401
-0.0198975 0.008419 0.00941988
-0.0197876 0.0085095 0.0119142
-0.0258 0.00787862 0.00825913
-0.0243891 0.00766759 0.010132
-0.032769 0.00356294 0.00715887
-0.0253639 0.00486063 0.0107331
-0.025643 0.00196524 0.0110541
-0.0196679 0.0116809 -0.00820386
-0.0239631 0.0104511 -0.00725335
-0.0230052 0.0106539 -0.00897596
-0.0186939 0.0119145 -0.00256865
-0.0251506 0.0106109 -0.00509897
-0.0190737 0.0116793 0.00333064
-0.0319049 0.00668941 0.000266129
-0.0252698 0.0106384 0.000453346
-0.032192 0.00490394 0.000164956
-0.0256524 0.0102288 0.00330552
-0.0251514 0.0107582 -0.00245499
-0.0199182 0.0107441 0.00909832
-0.0261932 0.00967991 0.0059208
-0.0243963 0.00959283 0.0079636
-0.0229235 0.00962979 0.00968996
-0.0286654 -0.00905276 -0.00679889
-0.0292993 -0.00665301 -0.00946071
-0.0320059 -0.00483439 -0.00792141
-0.0341295 -0.00350856 -0.00727562
-0.030939 -0.00661143 -0.00705686
-0.0373486 -0.00261884 -0.00326221
-0.0373228 -0.00483131 -0.0014478
-0.0375275 -0.00291926 -0.00149205
-0.031898 -0.00440932 -0.00679892
-0.0360634 -0.00632416 -0.00485593
-0.0367462 -0.00432247 -0.00512514
-0.0312724 -0.00869203 -0.00207031
-0.0367764 -0.00615554 -0.00311724
-0.0371087 -0.00435391 -0.00329757
-0.0366306 -0.00675389 -0.00147964
-0.0374578 -0.0050197 -5.62127e-05
-0.0314898 -0.00866766 0.00224002
-0.0379418 -0.00392037 0.00129233
-0.0377917 -0.00353485 4.31548e-05
-0.0326554 -0.00440912 -0.00453635
-0.0368593 -0.00635194 2.97133e-05
-0.0373763 -0.00501906 0.00128204
-0.0375575 -0.00270331 0.0029659
-0.0289859 -0.00918393 0.00626727
-0.0369174 -0.00609538 0.0028079
-0.0372699 -0.00431227 0.00297837
-0.0314247 -0.00698734 0.00685868
-0.0368812 -0.00448697 0.00470884
-0.0361993 -0.00649468 0.0044077
-0.0323061 -0.00502139 0.0068215
-0.0365789 -0.00702178 0.00135997
-0.0296117 -0.00736636 0.00917331
-0.0343085 -0.00386726 0.00681362
-0.0322204 -0.00514989 0.00742594
-0.0316062 -0.00177144 -0.00923397
-0.0364202 -0.0026137 -0.00667578
-0.0373189 -0.0012278 -0.00497105
-0.0371805 -0.00284902 -0.00499638
-0.0364657 -0.00304011 0.00624113
-0.037471 -0.00163555 0.00457816
-0.0373388 -0.00314371 0.00458014
-0.0312505 -0.00257096 0.00930226
-0.0378082 0.000169934 -0.00361817
-0.0379494 0.00137578 -0.00414545
-0.0369314 -0.00130815 -0.00687062
-0.0377479 -0.000113853 -0.00512233
-0.0371498 -0.000197073 -0.00692228
-0.0321021 0.00257261 -0.00878903
-0.0375486 0.00127374 -0.005447
-0.0371522 0.000814325 -0.00687839
-0.0370632 -5.89888e-05 0.0066317
-0.0377071 0.000578842 0.0046565
-0.0375996 -0.000401814 0.00450144
-0.0369043 -0.00177055 0.00648871
-0.0369885 -0.000867902 0.00681284
-0.0311917 0.00150447 0.00911337
-0.0299513 0.00654948 -0.00856126
-0.0314484 0.00650899 -0.00652464
-0.0372586 0.00288587 -0.00348456
-0.0321044 0.00663826 -0.00425789
-0.0361824 0.00267255 -0.00626176
-0.0369614 0.00285452 -0.00499823
-0.0360439 0.001767 0.00617187
-0.0296097 0.00586337 0.0089958
-0.031652 0.00593286 0.00692809
-0.0371434 0.00195691 0.00473788
-0.028504 0.00840119 -0.00616813
-0.0322046 0.00507564 -0.00777443
-0.0342289 0.00371275 -0.00706009
-0.0358231 0.00664224 -0.00476156
-0.0365941 0.00453554 -0.00488069
-0.0364434 0.00674137 -0.00292202
-0.0371448 0.00456281 -0.00182979
-0.0365207 0.00668433 -0.00127671
-0.0306552 0.00863092 -0.00168941
-0.0369452 0.00448311 -0.00334051
-0.0309133 0.0085812 0.00228372
-0.0364007 0.00409881 0.000163883
-0.0365412 0.0058942 0.000294634
-0.0370454 0.00375778 0.00453398
-0.0368116 0.0060164 0.00309124
-0.0371185 0.00356162 0.0033315
-0.0373819 0.00337555 0.00206922
-0.0286315 0.00798964 0.0066885
-0.0362088 0.00589031 0.00470421
-0.0369783 0.00568395 0.00178579
-0.0342525 0.00283112 0.00677194
-0.0323161 0.00428954 0.00770107
-0.04 0 0
-0.04 0 0
-0.04 0 0
-0.04 0 0
-0.04 0 0
-0.04 0 0
-0.04 0 0
-0.04 0 0
-0.04 0 0
-0.04 0 0
-0.04 0 0
-0.04 0 0
-0.04 0 0
-0.04 0 0
-0.04 0 0
-0.04 0 0
-0.04 0 0
-0.04 0 0
-0.04 0 0
-0.04 0 0
-0.04 0 0
-0.04 0 0
-0.04 0 0
-0.04 0 0
-0.04 0 0
-0.04 0 0
-0.04 0 0
-0.04 0 0
-0.04 0 0
-0.04 0 0
-0.04 0 0
-0.04 0 0
-0.04 0 0
-0.04 0 0
-0.04 0 0
-0.04 0 0
-0.04 0 0
-0.04 0 0
-0.04 0 0
-0.04 0 0
-0.04 0 0
-0.04 0 0
-0.04 0 0
-0.04 0 0
-0.04 0 0
-0.04 0 0
-0.04 0 0
-0.04 0 0
-0.04 0 0
-0.04 0 0
-0.04 0 0
-0.04 0 0
-0.04 0 0
-0.04 0 0
-0.04 0 0
-0.04 0 0

CELL_DATA 236
TENSORS stress float
-9216.91 60.1652 -422.512
60.1652 -2106.49 401.506
-422.512 401.506 383.815

-8738.75 33.9561 83.3598
33.9561 -1439.89 549.092
83.3598 549.092 -656.167

-11146.8 -1593.71 1368.57
-1593.71 -6901.31 -1387.24
1368.57 -1387.24 -7667.14

-6865.39 79.2181 -847.952
79.2181 -30.2553 515.686
-847.952 515.686 526.131

-9739.83 -1607.3 -1271.55
-1607.3 -4398.86 997.8
-1271.55 997.8 -5751.43

-12093.6 643.167 -960.525
643.167 -9395.9 -461.772
-960.525 -461.772 -8582.85

-13652.3 174.987 -76.3926
174.987 -8916.7 -147.067
-76.3926 -147.067 -9230.66

-7767.4 -285.486 167.763
-285.486 -439.377 -102.201
167.763 -102.201 -360.318

-9377.77 483.114 487.469
483.114 -2050.5 -15.6565
487.469 -15.6565 -2458.57

-17590.1 -305.92 -61.1098
-305.92 -14507.7 -33.6122
-61.1098 -33.6122 -14599.1

-7197.94 -511.848 255.91
-511.848 863.03 212.365
255.91 212.365 387.34

-8583.12 -333.59 -2105.34
-333.59 -6301.61 -95.3885
-2105.34 -95.3885 -4038.07

-7095.48 467.532 -1752.47
467.532 -1715.06 -408.963
-1752.47 -408.963 613.987

-9302.32 -23.5596 559.085
-23.5596 -2184.69 -135.48
559.085 -135.48 132.964

-7480.28 412.377 631.772
412.377 1517.95 -169.956
631.772 -169.956 -424.388

-7290.51 -603.314 -447.401
-603.314 2430.12 -128.32
-447.401 -128.32 1820.19

-7301.27 230.908 260.398
230.908 530.256 -175.767
260.398 -175.767 329.806

-8114.47 960.532 230.384
960.532 -738.564 276.971
230.384 276.971 -2743.49

-9895.31 396.529 306.923
396.529 -1646.17 298.999
306.923 298.999 -1325.81

-8499.77 -1146.9 -1006.61
-1146.9 -1743.34 392.661
-1006.61 392.661 -2439.05

-7442.63 337.459 582.818
337.459 2010.56 61.7546
582.818 61.7546 1109.17

-12309.9 499.594 -960.96
499.594 -10586.2 -229.562
-960.96 -229.562 -9729.01

-11122.8 261.277 -1744.7
261.277 -9112.29 -435.79
-1744.7 -435.79 -6003.18

-8103.47 -206.013 121.521
-206.013 -2873.79 -283.173
121.521 -283.173 -685.09

-8267.07 -163.971 62.3036
-163.971 -49.3183 -372.24
62.3036 -372.24 40.5174

-11137 -1587.24 -1190.42
-1587.24 -6911.73 1319.43
-1190.42 1319.43 -8182.1

-7576.45 -89.6208 -145.64
-89.6208 1086.32 445.125
-145.64 445.125 1709.66

-10430.4 407.264 -364.804
407.264 -5138.92 558.308
-364.804 558.308 -5565.19

-8038.7 -86.6403 -233.548
-86.6403 -817.472 -526.305
-233.548 -526.305 -1235.49

-9740.11 -1586.01 -1677.3
-1586.01 -5305.74 837.364
-1677.3 837.364 -6481.27

-9229.45 -196.181 -291.63
-196.181 -1873.44 -260.67
-291.63 -260.67 -2705.09

-7371.05 -353.749 -246.12
-353.749 1396.91 359.477
-246.12 359.477 1093.25

-9364.8 430.054 -1873.97
430.054 -7087.78 -254.283
-1873.97 -254.283 -4470.04

-9635.47 -285.752 -256.026
-285.752 -2729.58 -482.155
-256.026 -482.155 -2419.77

-8415.81 -1892.48 1454.75
-1892.48 -3398.78 -1009.29
1454.75 -1009.29 -4662.95

-7076.29 657.511 -391.732
657.511 2714.6 262.524
-391.732 262.524 1834.91

-9165.98 -51.3517 -227.237
-51.3517 -951.302 -75.3468
-227.237 -75.3468 -1024.16

-6604.74 592.297 611.557
592.297 -435.922 -377.014
611.557 -377.014 1856.44

-8197.4 193.949 302.686
193.949 -1772.75 -105.59
302.686 -105.59 -204.1

-7079.39 319.648 163.327
319.648 629.939 -449.428
163.327 -449.428 509.127

-7695.84 -75.1553 -434.925
-75.1553 696.805 -316.82
-434.925 -316.82 686.456

-8836.33 -92.299 -649.228
-92.299 -1964.04 -610.659
-649.228 -610.659 -1858.44

-8258.6 -231.515 -95.9128
-231.515 -2983.01 132.857
-95.9128 132.857 -771.653

-6433.74 265.883 -1030.07
265.883 863.107 239.284
-1030.07 239.284 860.909

-9354.12 1590.51 -1283.55
1590.51 -3815.7 -794.361
-1283.55 -794.361 -5092.59

-11459.1 -1520.79 1119.72
-1520.79 -7317.35 -1340.23
1119.72 -1340.23 -8640.58

-8965.17 889.731 634.908
889.731 -4930.5 -29.5787
634.908 -29.5787 -5190.41

-9285.07 35.0724 508.298
35.0724 -2006.86 31.4388
508.298 31.4388 -258.93

-11094.4 1504.91 -1122.18
1504.91 -6704.92 -1057.82
-1122.18 -1057.82 -8185.61

-13288.4 382.387 847.17
382.387 -11728.1 228.003
847.17 228.003 -10648.8

-7795.25 389.36 462.384
389.36 -613.41 495.624
462.384 495.624 -505.148

-5683.4 1339.21 -1679.14
1339.21 -193.874 -502.983
-1679.14 -502.983 637.146

-8086.23 1774.84 1558.35
1774.84 -2970.38 852.862
1558.35 852.862 -3980.62

-8135.74 -192.131 -2022.77
-192.131 -5954.23 12.3444
-2022.77 12.3444 -4099.96

-9195.17 124.319 -2071.27
124.319 -7134.77 -243.742
-2071.27 -243.742 -4278.81

-10138.8 273.918 1814.68
273.918 -7943.96 221.907
1814.68 221.907 -5036.16

-7289.84 -225.168 6.56326
-225.168 798.673 -440.51
6.56326 -440.51 1190.33

-9343.72 33.6614 -532.288
33.6614 -2196.26 -123.529
-532.288 -123.529 -220.599

-8195.72 -222.883 202.715
-222.883 -250.627 42.2745
202.715 42.2745 -822.665

-11679.4 1553.23 -388.558
1553.23 -8461.15 -377.895
-388.558 -377.895 -10184.2

-8938.07 2257.77 -498.741
2257.77 -4248.4 -311.677
-498.741 -311.677 -6588.28

-9621.41 -90.1229 -52.6953
-90.1229 -2998.39 11.5013
-52.6953 11.5013 -3302.6

-9460.97 -2200.35 -552.904
-2200.35 -4672.96 346.435
-552.904 346.435 -7232.95

-8158.47 711.486 593.835
711.486 -1805.43 331.191
593.835 331.191 -731.252

-7318.31 559.479 1138.09
559.479 -2372.87 117.609
1138.09 117.609 185.708

-8581.44 -840.535 -137.15
-840.535 -1140.33 348.494
-137.15 348.494 -3295.7

-8991.08 -391.953 613.655
-391.953 -2749.95 642.436
613.655 642.436 -2064.37

-8237.25 -329.425 337.458
-329.425 -2064.18 -258.009
337.458 -258.009 -1017.11

-8903.63 2179.36 730.07
2179.36 -4452.19 428.143
730.07 428.143 -6632.68

-8856.25 1933.27 854.146
1933.27 -5225.5 494.3
854.146 494.3 -6781.88

-8149 224.769 -6.00297
224.769 -510.53 -44.2766
-6.00297 -44.2766 -648.829

-6842.45 687.856 -1171.2
687.856 -1843.91 -91.5526
-1171.2 -91.5526 374.441

-6427.88 1176.73 1621.85
1176.73 -889.068 435.094
1621.85 435.094 17.3178

-11289.2 1444.36 1193.83
1444.36 -7170.17 1122.86
1193.83 1122.86 -8394.64

-8699.46 -1039.32 887.488
-1039.32 -2224.75 -543.679
887.488 -543.679 -2714.08

-9357.33 -29.0206 -622.532
-29.0206 -2287.22 182.517
-622.532 182.517 93.8565

-9360.32 -128.521 -228.128
-128.521 -3567.17 -1282.32
-228.128 -1282.32 -2337.06

-10828.5 -1297.21 -871.842
-1297.21 -5993.95 498.188
-871.842 498.188 -7635.15

-14239.5 378.3 327.543
378.3 -10516.9 115.021
327.543 115.021 -10418.1

-8881.04 -689.086 -926.568
-689.086 -2488.2 289.36
-926.568 289.36 -2847.41

-8548.43 147.807 334.352