# vtk DataFile Version 3.0
vtk output at time 0.2
ASCII
DATASET UNSTRUCTURED_GRID
POINTS 527 float
0 0 0 0 0 0.05 0 0 0.1 
0 0 0.15 0 0 0.2 0 0.05 0 
0 0.05 0.05 0 0.05 0.1 0 0.05 0.15 
0 0.05 0.2 0 0.1 0 0 0.1 0.05 
0 0.1 0.1 0 0.1 0.15 0 0.1 0.2 
0 0.15 0 0 0.15 0.05 0 0.15 0.1 
0 0.15 0.15 0 0.15 0.2 0 0.2 0 
0 0.2 0.05 0 0.2 0.1 0 0.2 0.15 
0 0.2 0.2 0.0470001 -0.0024132 -0.00235105 0.0476611 -0.0022433 0.0488561 
0.0479486 -0.00240316 0.099992 0.0477556 -0.00238054 0.151174 0.0469411 -0.00244393 0.202422 
0.0477273 0.0489043 -0.00239288 0.047779 0.0488843 0.202401 0.0478867 0.100048 -0.00239397 
0.0477706 0.0999413 0.202341 0.0480412 0.151336 -0.00233767 0.0480112 0.151212 0.202428 
0.0469509 0.202574 -0.00228581 0.0476651 0.20229 0.0488948 0.047999 0.202369 0.100056 
0.0477981 0.20238 0.151242 0.0469458 0.202482 0.202436 0.0949821 -0.00290189 -0.00303743 
0.0951484 -0.00327548 0.0482967 0.0951779 -0.00329047 0.0999374 0.0947945 -0.00339049 0.151552 
0.0949449 -0.00302075 0.203059 0.0949288 0.0483405 -0.00327768 0.0949558 0.0483292 0.203403 
0.0951076 0.100006 -0.00339679 0.0952512 0.10003 0.203434 0.0949445 0.151803 -0.00352879 
0.0950896 0.151619 0.20355 0.0950116 0.203207 -0.00298619 0.0950263 0.203466 0.0484349 
0.0953115 0.20332 0.100079 0.094812 0.20327 0.151671 0.09504 0.202977 0.203168 
0.14308 -0.00268522 -0.0024595 0.142315 -0.00259915 0.0488605 0.14196 -0.00249688 0.100059 
0.14222 -0.00247725 0.151068 0.14301 -0.00278346 0.202339 0.142175 0.0488073 -0.00276359 
0.142198 0.0486745 0.202796 0.141836 0.100061 -0.00264537 0.142068 0.0998974 0.202667 
0.141919 0.151254 -0.00252542 0.142193 0.15107 0.202588 0.143046 0.202519 -0.00232206 
0.142458 0.202521 0.0489982 0.142213 0.202513 0.100076 0.142345 0.202546 0.151077 
0.143054 0.202459 0.202399 0.19 0 0 0.19 0 0.05 
0.19 0 0.1 0.19 0 0.15 0.19 0 0.2 
0.19 0.05 0 0.19 0.05 0.05 0.19 0.05 0.1 
0.19 0.05 0.15 0.19 0.05 0.2 0.19 0.1 0 
0.19 0.1 0.05 0.19 0.1 0.1 0.19 0.1 0.15 
0.19 0.1 0.2 0.19 0.15 0 0.19 0.15 0.05 
0.19 0.15 0.1 0.19 0.15 0.15 0.19 0.15 0.2 
0.19 0.2 0 0.19 0.2 0.05 0.19 0.2 0.1 
0.19 0.2 0.15 0.19 0.2 0.2 0 0.025 0 
0.0234111 -0.00140951 -0.00214032 0.0242283 -0.00184005 0.0238028 0 0 0.025 
0 0.025 0.025 0.0243231 -0.00187935 0.0492808 0 0.025 0.05 
0 0.025 0.075 0 0 0.075 0 0.025 0.1 
0.0242682 -0.00196925 0.074659 0.0243032 -0.001795 0.100039 0.0242968 -0.0018908 0.125425 
0 0 0.125 0.0243422 -0.00181611 0.150756 0 0.025 0.175 
0 0.025 0.15 0 0 0.175 0 0.025 0.125 
0.0242483 -0.0018324 0.176195 0 0.025 0.2 0.0233763 -0.00141296 0.202165 
0.0243285 0.0237789 0.0239057 0 0.05 0.025 0.0237379 0.0240252 -0.00178654 
0.0240233 0.0493463 -0.00159097 0.0243454 0.0749225 -0.00187723 0 0.075 0.025 
0 0.075 0 0.0242979 0.023795 0.0493564 0 0.05 0.075 
0 0.075 0.05 0.0483923 0.0744644 0.0230724 0.02444 0.0748305 0.0237171 
0.0479802 0.0488726 0.0232499 0.0241831 0.0493275 0.0238406 0.0481996 0.0232308 0.0744388 
0.0479555 0.0233657 0.0488517 0 0.075 0.075 0.0485853 0.0744305 0.0486039 
0.0481864 0.0232047 0.0999438 0.0243898 0.0237108 0.0747162 0.0244448 0.0237758 0.125386 
0.0485286 0.0229936 0.125635 0.0244004 0.0236977 0.100043 0 0.05 0.125 
0 0.075 0.125 0 0.075 0.1 0 0.05 0.175 
0.0243792 0.0238133 0.150725 0.0243854 0.0747394 0.176289 0.0242481 0.0493098 0.176168 
0.0482429 0.0744178 0.176832 0 0.075 0.15 0.0480488 0.0488497 0.176747 
0.048367 0.0231358 0.151224 0.0243541 0.0237803 0.176133 0.0243231 0.0748517 0.201925 
0.0240752 0.0493349 0.201614 0.0237441 0.0240272 0.201815 0 0.075 0.175 
0 0.075 0.2 0 0.125 0 0.0243573 0.100199 -0.00190041 
0 0.1 0.025 0.0486294 0.100095 0.0229444 0 0.125 0.025 
0 0.125 0.05 0.0245197 0.125443 0.0237921 0.0244556 0.100146 0.0237724 
0 0.1 0.075 0.048597 0.125663 0.0230027 0 0.125 0.075 
0 0.1 0.125 0.0484432 0.151308 0.125645 0.0483866 0.125641 0.151334 
0.0482587 0.100012 0.151453 0.0483443 0.151384 0.100008 0.0485427 0.125685 0.0486512 
0.048481 0.100077 0.0485682 0 0.125 0.1 0.0482474 0.0486376 0.0999544 
0.0484595 0.0486214 0.125619 0.0950276 0.100032 0.100009 0.0485413 0.15131 0.151314 
0.0483373 0.125612 0.17687 0 0.125 0.175 0 0.125 0.15 
0.0244762 0.125392 0.17628 0.0244027 0.100091 0.176276 0 0.1 0.175 
0 0.125 0.125 0.0482456 0.0999911 0.176875 0.0485244 0.0486842 0.151294 
0.0243213 0.100137 0.201994 0 0.125 0.2 0 0.15 0.025 
0.0243144 0.150776 -0.00155761 0.0238079 0.175948 -0.00169143 0.024346 0.176127 0.0239316 
0.0243369 0.125487 -0.00174102 0 0.175 0.025 0 0.175 0 
0.0244227 0.150768 0.0239138 0.0242904 0.17618 0.0493845 0.0484242 0.15129 0.0232081 
0.0480945 0.17675 0.0489032 0 0.175 0.05 0 0.15 0.075 
0.0482737 0.176798 0.074491 0.0244074 0.176266 0.0747316 0.0482842 0.176785 0.100016 
0.0244192 0.176259 0.100066 0 0.175 0.1 0.0244529 0.176228 0.125411 
0 0.175 0.075 0.0485374 0.176971 0.12567 0 0.15 0.125 
0 0.175 0.125 0.0485654 0.151291 0.0486973 0 0.15 0.175 
0.0244093 0.150713 0.176184 0.0243819 0.176154 0.150739 0.0483264 0.151173 0.176829 
0 0.175 0.15 0.0484542 0.176896 0.151253 0.0243728 0.176101 0.176148 
0.0243035 0.150707 0.201688 0.0237937 0.17589 0.201777 0 0.175 0.175 
0.0242989 0.12544 0.201859 0 0.175 0.2 0.0233916 0.201379 -0.00208115 
0.0242323 0.20179 0.0238686 0 0.2 0.025 0.0243263 0.201857 0.0492994 
0 0.2 0.075 0.0243286 0.201749 0.100068 0.0243127 0.201857 0.125444 
0.0242745 0.201921 0.0746942 0 0.2 0.125 0.0243578 0.201775 0.150795 
0 0.2 0.175 0.024268 0.201735 0.176194 0.0233808 0.201325 0.202153 
0.0474491 -0.00236572 0.0231807 0.0709723 -0.00272278 -0.00265707 0.0712182 0.0228498 -0.00276233 
0.0475439 0.0232615 -0.00248771 0.0712263 -0.00270012 0.0229019 0.0714837 0.0228997 0.0228194 
0.0479539 0.0233195 0.0231561 0.0714761 -0.00276296 0.0742098 0.0714462 -0.00273361 0.0485033 
0.0477925 -0.00237924 0.0743922 0.0716223 -0.00284499 0.0999756 0.0478157 -0.00242456 0.125601 
0.0714997 0.0228106 0.177246 0.0711759 -0.00283155 0.177177 0.0713377 -0.00293921 0.151443 
0.0716014 -0.00304602 0.125762 0.0479823 0.0232623 0.176865 0.0474363 -0.00241605 0.176877 
0.0712048 0.0227999 0.202809 0.0709136 -0.00280034 0.202735 0.0475509 0.0232396 0.20253 
0.0713373 0.0485598 -0.00286097 0.0478425 0.0744582 -0.00243523 0.0478338 0.074415 0.202421 
0.0713724 0.0485435 0.202889 0.0715615 0.074214 -0.002965 0.0716387 0.10001 -0.00301317 
0.0480077 0.125704 -0.00243895 0.071667 0.125786 -0.00310569 0.047925 0.125592 0.202457 
0.0715685 0.0999584 0.202888 0.0715327 0.0742222 0.202905 0.0715774 0.125674 0.202973 
0.0476954 0.17695 -0.0024564 0.0481261 0.176833 0.0232258 0.0715411 0.151691 -0.00290793 
0.0481024 0.176758 0.176875 0.0476598 0.176824 0.202573 0.071562 0.151509 0.202952 
0.0474124 0.202455 0.0232496 0.0709714 0.203041 -0.00255415 0.0713148 0.177468 -0.0027322 
0.0715229 0.202809 0.0743274 0.0478148 0.202364 0.0744608 0.0712351 0.202982 0.0229811 
0.0716467 0.177353 0.0228545 0.0714231 0.202902 0.0486069 0.0717083 0.202848 0.100063 
0.0478718 0.202381 0.125656 0.0474622 0.202414 0.176904 0.0716283 0.177214 0.177292 
0.0714036 0.202923 0.151544 0.0712596 0.202849 0.17725 0.0716704 0.202981 0.12581 
0.0709672 0.202819 0.202775 0.0712972 0.177241 0.202862 0.0949811 0.0226184 -0.00309282 
0.0950821 -0.0030304 0.022565 0.119053 -0.00275616 -0.00277787 0.118879 -0.00278201 0.0227784 
0.0951129 0.0225322 0.022515 0.118712 -0.00284115 0.0484583 0.0952055 -0.00330318 0.0740843 
0.118445 0.0485186 0.0226989 0.0950964 0.048305 0.0225098 0.0950984 0.0483348 0.151618 
0.141705 0.0487586 0.125671 0.141711 0.0486732 0.10004 0.118372 0.0485391 0.0484467 
0.0951429 0.0483195 0.0483913 0.0950923 -0.00346835 0.125712 0.118606 -0.00290963 0.0742095 
0.118515 -0.00302954 0.125675 0.118252 0.0484749 0.15164 0.11843 -0.00290657 0.0999984 
0.0949168 0.0225017 0.177535 0.0949246 -0.00310183 0.177385 0.0950522 0.0483871 0.17756 
0.118409 -0.00285925 0.151439 0.118308 0.0483997 0.177364 0.0949473 0.022525 0.203195 
0.118984 -0.00291111 0.202653 0.118725 -0.00283203 0.177086 0.0950162 0.0741595 -0.00337052 
0.11881 0.0227959 -0.00284439 0.118678 0.0228431 0.022728 0.118667 0.0484666 -0.00292651 
0.118412 0.074183 -0.00300479 0.118728 0.0226662 0.202799 0.118493 0.0227424 0.177254 
0.0951487 0.0741828 0.203447 0.118508 0.0741207 0.203125 0.118675 0.0483561 0.202972 
0.141681 0.100005 0.0485298 0.118323 0.0999628 -0.00306035 0.0950532 0.12593 -0.00343406 
0.141693 0.12563 0.0486223 0.118319 0.151675 0.0485757 0.0951847 0.15175 0.0484616 
0.141551 0.0998535 0.177109 0.141634 0.0999 0.151483 0.141488 0.125556 0.151462 
0.0951636 0.151645 0.177562 0.0951101 0.15159 0.151579 0.11842 0.151624 0.177303 
0.118241 0.151563 0.151493 0.141612 0.125474 0.177059 0.118508 0.0998793 0.203186 
0.0952479 0.125867 0.203492 0.0950112 0.177638 -0.00320548 0.0950672 0.177711 0.0225293 
0.118469 0.177387 0.0228216 0.118721 0.177452 -0.0027852 0.118322 0.151631 -0.00291199 
0.141843 0.151271 0.0487833 0.118372 0.177392 0.0485312 0.095148 0.17763 0.0483722 
0.118354 0.125842 -0.00292059 0.0949658 0.17739 0.177625 0.0950368 0.177428 0.203345 
0.118492 0.177276 0.177281 0.118787 0.177228 0.202855 0.141884 0.151067 0.176981 
0.118627 0.151438 0.203055 0.11857 0.125624 0.203175 0.0950372 0.203328 0.0226548 
0.118872 0.203001 0.0229326 0.119073 0.203048 -0.00261166 0.095235 0.203414 0.074227 
0.118637 0.203034 0.0485488 0.0951247 0.203368 0.125855 0.14202 0.176927 0.100049 
0.118631 0.203088 0.100086 0.14198 0.151392 0.100026 0.11854 0.202979 0.125869 
0.118639 0.203097 0.0742899 0.0949723 0.203076 0.177473 0.11838 0.20279 0.151595 
0.118777 0.202803 0.177176 0.119095 0.202834 0.202728 0.142606 -0.00266025 0.0231003 
0.142445 0.0230731 -0.00273885 0.166676 -0.00143106 -0.00233616 0.166233 0.023986 -0.00204258 
0.142135 0.0230937 0.0230013 0.16564 0.049259 0.049099 0.165633 0.0236152 0.0746208 
0.165608 0.0491572 0.0745838 0.141962 0.0487289 0.023067 0.165776 -0.00182975 0.0236793 
0.16568 0.0237729 0.0236009 0.142118 -0.00254851 0.0744579 0.165663 -0.00179867 0.0491678 
[...]
POINT_DATA 527
VECTORS displacement float
0 0 0
0 0 0
0 0 0
0 0 0
0 0 0
0 0 0
0 0 0
0 0 0
0 0 0
0 0 0
0 0 0
0 0 0
0 0 0
0 0 0
0 0 0
0 0 0
0 0 0
0 0 0
0 0 0
0 0 0
0 0 0
0 0 0
0 0 0
0 0 0
0 0 0
-0.00299992 -0.0024132 -0.00235105
-0.00233895 -0.0022433 -0.00114389
-0.00205142 -0.00240316 -7.99367e-06
-0.00224437 -0.00238054 0.00117364
-0.00305894 -0.00244393 0.00242177
-0.00227266 -0.00109575 -0.00239288
-0.002221 -0.00111569 0.00240078
-0.00211333 4.7807e-05 -0.00239397
-0.00222943 -5.86694e-05 0.00234103
-0.00195881 0.00133596 -0.00233767
-0.00198876 0.00121171 0.00242764
-0.00304909 0.00257411 -0.00228581
-0.00233491 0.00229007 -0.00110521
-0.00200096 0.00236909 5.584e-05
-0.00220189 0.00237956 0.00124212
-0.0030542 0.00248196 0.0024358
-0.00501787 -0.00290189 -0.00303743
-0.00485156 -0.00327548 -0.00170328
-0.00482211 -0.00329047 -6.2647e-05
-0.00520551 -0.00339049 0.00155234
-0.00505509 -0.00302075 0.00305913
-0.00507122 -0.00165947 -0.00327768
-0.0050442 -0.00167082 0.00340259
-0.00489241 6.4102e-06 -0.00339679
-0.00474884 3.04324e-05 0.00343411
-0.00505549 0.00180271 -0.00352879
-0.00491041 0.00161935 0.00355047
-0.00498837 0.00320737 -0.00298619
-0.00497372 0.00346611 -0.0015651
-0.00468851 0.00331973 7.90129e-05
-0.00518802 0.00327007 0.00167082
-0.00495997 0.00297691 0.00316848
-0.00692026 -0.00268522 -0.0024595
-0.00768462 -0.00259915 -0.00113946
-0.00804041 -0.00249688 5.92262e-05
-0.00777959 -0.00247725 0.00106798
-0.00698972 -0.00278346 0.00233902
-0.00782471 -0.00119273 -0.00276359
-0.00780221 -0.00132547 0.00279568
-0.00816447 6.0624e-05 -0.00264537
-0.00793211 -0.000102564 0.00266704
-0.00808093 0.00125427 -0.00252542
-0.00780744 0.00107 0.00258848
-0.00695359 0.00251874 -0.00232206
-0.00754241 0.00252067 -0.0010018
-0.00778741 0.00251284 7.57385e-05
-0.00765489 0.00254583 0.00107694
-0.00694572 0.0024593 0.002399
-0.01 0 0
-0.01 0 0
-0.01 0 0
-0.01 0 0
-0.01 0 0
-0.01 0 0
-0.01 0 0
-0.01 0 0
-0.01 0 0
-0.01 0 0
-0.01 0 0
-0.01 0 0
-0.01 0 0
-0.01 0 0
-0.01 0 0
-0.01 0 0
-0.01 0 0
-0.01 0 0
-0.01 0 0
-0.01 0 0
-0.01 0 0
-0.01 0 0
-0.01 0 0
-0.01 0 0
-0.01 0 0
0 0 0
-0.00158892 -0.00140951 -0.00214032
-0.000771734 -0.00184005 -0.00119716
0 0 0
0 0 0
-0.000676883 -0.00187935 -0.000719241
0 0 0
0 0 0
0 0 0
0 0 0
-0.000731824 -0.00196925 -0.000341034
-0.000696765 -0.001795 3.92912e-05
-0.000703194 -0.0018908 0.000424848
0 0 0
-0.000657848 -0.00181611 0.00075552
0 0 0
0 0 0
0 0 0
0 0 0
-0.000751738 -0.0018324 0.00119511
0 0 0
-0.00162369 -0.00141296 0.00216528
-0.000671517 -0.00122108 -0.00109435
0 0 0
-0.00126208 -0.000974808 -0.00178654
-0.000976671 -0.000653716 -0.00159097
-0.000654557 -7.75307e-05 -0.00187723
0 0 0
0 0 0
-0.000702064 -0.00120504 -0.000643563
0 0 0
0 0 0
-0.00160771 -0.000535588 -0.00192764
-0.000559982 -0.000169546 -0.00128293
-0.00201984 -0.0011274 -0.00175014
-0.000816918 -0.000672533 -0.00115945
-0.00180038 -0.0017692 -0.000561184
-0.00204455 -0.0016343 -0.00114827
0 0 0
-0.0014147 -0.000569452 -0.00139614
-0.00181363 -0.00179531 -5.62258e-05
-0.0006102 -0.00128922 -0.000283758
-0.000555211 -0.0012242 0.000385908
-0.00147143 -0.00200639 0.000634723
-0.000599635 -0.00130234 4.34793e-05
0 0 0
0 0 0
0 0 0
0 0 0
-0.000620782 -0.00118666 0.000725189
-0.000614553 -0.000260584 0.00128876
-0.000751927 -0.000690156 0.00116782
-0.00175708 -0.000582245 0.00183175
0 0 0
-0.00195118 -0.00115027 0.00174734
-0.00163299 -0.0018642 0.00122373
-0.000645913 -0.00121966 0.00113264
-0.000676928 -0.000148288 0.0019246
-0.000924832 -0.000665103 0.00161381
-0.00125592 -0.000972805 0.00181493
0 0 0
0 0 0
0 0 0
-0.000642674 0.00019929 -0.00190041
0 0 0
-0.00137056 9.49652e-05 -0.00205564
0 0 0
0 0 0
-0.000480319 0.000442664 -0.0012079
-0.000544445 0.000145556 -0.00122758
0 0 0
-0.00140301 0.000662856 -0.00199725
0 0 0
0 0 0
-0.00155683 0.00130777 0.000645055
-0.00161335 0.00064088 0.00133383
-0.00174134 1.21412e-05 0.0014533
-0.0016557 0.00138375 8.15645e-06
-0.00145735 0.000684887 -0.00134883
-0.00151898 7.67164e-05 -0.00143179
0 0 0
-0.00175261 -0.00136241 -4.55828e-05
-0.00154052 -0.00137864 0.000618824
-0.00497243 3.24048e-05 8.70595e-06
-0.00145874 0.00131012 0.00131441
-0.00166271 0.000611868 0.00187044
0 0 0
0 0 0
-0.000523849 0.000392154 0.00128048
-0.000597321 9.13194e-05 0.0012758
0 0 0
0 0 0
-0.00175435 -8.85933e-06 0.00187468
-0.00147558 -0.00131581 0.00129428
-0.00067868 0.000136637 0.00199379
0 0 0
0 0 0
-0.000685588 0.00077561 -0.00155761
-0.00119215 0.000948375 -0.00169143
-0.000653973 0.00112704 -0.00106843
-0.000663087 0.000487156 -0.00174102
0 0 0
0 0 0
-0.000577272 0.000768063 -0.00108624
-0.000709569 0.00117977 -0.000615524
-0.00157582 0.00129006 -0.00179191
-0.00190546 0.00174994 -0.00109678
0 0 0
0 0 0
-0.00172629 0.00179834 -0.000508983
-0.000592563 0.00126585 -0.000268392
-0.00171581 0.001785 1.62131e-05
-0.000580789 0.00125911 6.64714e-05
0 0 0
-0.000547112 0.00122849 0.000410916
0 0 0
-0.00146258 0.00197062 0.000670199
0 0 0
0 0 0
-0.00143461 0.00129107 -0.00130267
0 0 0
-0.000590744 0.000712923 0.00118406
-0.000618102 0.00115388 0.000738873
-0.00167356 0.00117265 0.00182899
0 0 0
-0.00154576 0.00189645 0.00125347
-0.000627184 0.00110125 0.00114844
-0.000696461 0.000706744 0.00168829
-0.00120632 0.000890028 0.00177748
0 0 0
-0.00070112 0.000439648 0.00185904
0 0 0
-0.00160836 0.00137874 -0.00208115
-0.00076769 0.00178993 -0.0011314
0 0 0
-0.000673717 0.00185706 -0.000700604
0 0 0
-0.00067143 0.00174914 6.80605e-05
-0.000687342 0.00185657 0.000443693
-0.000725493 0.00192081 -0.000305827
0 0 0
-0.000642166 0.00177469 0.000795314
0 0 0
-0.000732044 0.00173538 0.00119433
-0.00161916 0.00132505 0.00215338
-0.00255088 -0.00236572 -0.00181929
-0.00402771 -0.00272278 -0.00265707
-0.00378176 -0.00215021 -0.00276233
-0.00245611 -0.00173854 -0.00248771
-0.00377366 -0.00270012 -0.00209807
-0.00351629 -0.00210032 -0.00218063
-0.00204605 -0.00168046 -0.0018439
-0.00352395 -0.00276296 -0.000790195
-0.00355385 -0.00273361 -0.00149672
-0.00220752 -0.00237924 -0.000607769
-0.00337768 -0.00284499 -2.44329e-05
-0.00218435 -0.00242456 0.000601391
-0.00350031 -0.00218939 0.00224608
-0.00382413 -0.00283155 0.00217731
-0.00366229 -0.00293921 0.00144304
-0.00339865 -0.00304602 0.000762472
-0.00201766 -0.00173766 0.00186499
-0.00256369 -0.00241605 0.00187671
-0.0037952 -0.00220006 0.0028089
-0.00408638 -0.00280034 0.00273465
-0.00244911 -0.00176037 0.00253003
-0.00366268 -0.00144016 -0.00286097
-0.0021575 -0.000541757 -0.00243523
-0.00216616 -0.00058496 0.00242107
-0.00362762 -0.00145646 0.00288879
-0.00343848 -0.000785985 -0.002965
-0.00336133 1.03758e-05 -0.00301317
-0.00199234 0.000703998 -0.00243895
-0.00333301 0.000785722 -0.00310569
-0.00207499 0.000591748 0.00245705
-0.00343148 -4.15875e-05 0.00288786
-0.00346729 -0.000777799 0.00290502
-0.00342261 0.000674347 0.00297344
-0.00230463 0.00195003 -0.0024564
-0.0018739 0.00183323 -0.00177423
-0.00345891 0.00169133 -0.00290793
-0.00189763 0.00175845 0.00187506
-0.00234022 0.001824 0.00257256
-0.00343803 0.00150877 0.00295153
-0.0025876 0.00245472 -0.00175039
-0.0040286 0.00304066 -0.00255415
-0.00368517 0.0024683 -0.0027322
-0.00347709 0.00280855 -0.000672642
-0.00218517 0.00236426 -0.000539186
-0.00376493 0.00298207 -0.00201886
-0.00335333 0.00235271 -0.00214546
-0.00357693 0.00290177 -0.00139315
-0.00329174 0.00284815 6.33757e-05
-0.00212821 0.00238114 0.000656099
-0.00253782 0.00241413 0.00190409
-0.00337171 0.002214 0.00229173
-0.00359643 0.00292319 0.00154391
-0.00374045 0.00284947 0.00225047
-0.00332961 0.00298138 0.00080995
-0.0040328 0.00281921 0.00277512
-0.00370281 0.00224102 0.00286201
-0.00501886 -0.00238163 -0.00309282
-0.00491787 -0.0030304 -0.00243501
-0.00594741 -0.00275616 -0.00277787
-0.00612103 -0.00278201 -0.00222158
-0.00488706 -0.00246783 -0.00248504
-0.00628784 -0.00284115 -0.00154166
-0.00479449 -0.00330318 -0.000915716
-0.00655532 -0.00148139 -0.00230109
-0.00490359 -0.00169504 -0.0024902
-0.00490165 -0.0016652 0.00161849
-0.00829524 -0.00124144 0.000671075
-0.00828927 -0.00132684 4.03645e-05
-0.00662815 -0.00146088 -0.00155328
-0.00485708 -0.00168054 -0.0016087
-0.00490772 -0.00346835 0.000711787
-0.00639391 -0.00290963 -0.000790469
-0.00648452 -0.00302954 0.00067539
-0.00674823 -0.00152512 0.00164004
-0.00657045 -0.00290657 -1.56836e-06
-0.00508319 -0.0024983 0.00253483
-0.00507538 -0.00310183 0.00238512
-0.00494785 -0.00161289 0.00255978
-0.00659122 -0.00285925 0.00143858
-0.00669231 -0.00160026 0.00236428
-0.00505272 -0.00247502 0.00319499
-0.0060164 -0.00291111 0.00265328
-0.00627542 -0.00283203 0.00208629
-0.00498379 -0.000840549 -0.00337052
-0.00618996 -0.00220405 -0.00284439
-0.00632244 -0.00215693 -0.00227198
-0.00633282 -0.00153335 -0.00292651
-0.00658824 -0.000816963 -0.00300479
-0.0062721 -0.00233381 0.0027992
-0.00650741 -0.00225756 0.00225434
-0.00485131 -0.000817194 0.00344736
-0.00649234 -0.00087928 0.00312505
-0.00632454 -0.00164393 0.00297162
-0.00831911 5.23361e-06 -0.00147015
-0.00667721 -3.72087e-05 -0.00306035
-0.00494681 0.000930089 -0.00343406
-0.0083075 0.000630318 -0.00137772
-0.00668101 0.00167513 -0.00142428
-0.00481526 0.00174963 -0.00153845
-0.00844863 -0.000146463 0.00210857
-0.00836551 -9.99821e-05 0.00148263
-0.00851208 0.000556312 0.00146206
-0.00483638 0.00164538 0.00256197
-0.00488994 0.00159044 0.00157876
-0.00658007 0.00162399 0.0023027
-0.00675886 0.00156347 0.00149333
-0.00838767 0.000473928 0.00205877
-0.00649152 -0.000120744 0.00318647
-0.00475209 0.00086712 0.0034921
-0.00498881 0.00263809 -0.00320548
-0.00493283 0.00271113 -0.00247067
-0.0065307 0.00238734 -0.00217841
-0.00627859 0.0024518 -0.0027852
-0.00667776 0.00163092 -0.00291199
-0.0081571 0.00127113 -0.00121667
-0.00662759 0.00239221 -0.00146878
-0.00485202 0.00263004 -0.00162783
-0.00664551 0.000842048 -0.00292059
-0.00503421 0.00238962 0.00262497
-0.00496315 0.00242775 0.00334519
-0.00650752 0.00227645 0.00228103
-0.0062126 0.0022282 0.00285524
-0.00811572 0.00106748 0.00198082
-0.00637343 0.00143813 0.00305455
-0.00643032 0.000623734 0.00317477
-0.00496277 0.00332818 -0.00234517
-0.00612766 0.00300103 -0.00206741
-0.00592725 0.00304791 -0.00261166
-0.00476502 0.00341352 -0.000773033
-0.00636301 0.00303357 -0.00145122
-0.00487531 0.00336811 0.000854732
-0.00798022 0.00192696 4.94067e-05
-0.00636913 0.00308785 8.64613e-05
-0.00801987 0.00139245 2.62673e-05
-0.00645971 0.0029793 0.000869098
-0.00636115 0.00309672 -0.000710155
-0.00502768 0.00307638 0.002473
-0.00662003 0.00279003 0.00159465
-0.00622339 0.00280341 0.00217623
-0.0059046 0.00283425 0.00272775
-0.00739377 -0.00266025 -0.00189971
-0.0075547 -0.0019269 -0.00273885
-0.00832386 -0.00143106 -0.00233616
-0.00876734 -0.00101399 -0.00204258
-0.00786516 -0.00190633 -0.00199867
-0.00936047 -0.000741044 -0.000901022
-0.0093669 -0.00138477 -0.000379253
-0.00939151 -0.000842852 -0.000416235
-0.00803764 -0.00127108 -0.00193296
-0.00922422 -0.00182975 -0.00132066
-0.00931987 -0.00122714 -0.0013991
-0.00788172 -0.00254851 -0.00054214
-0.00933696 -0.00179867 -0.000832204
-0.00933545 -0.00123727 -0.000896713
-0.0092895 -0.00199352 -0.000392509
-0.00938875 -0.00146265 5.69693e-07
-0.00793288 -0.00253887 0.000621692
-0.00948636 -0.00111032 0.000360359
-0.00943317 -0.00101668 1.55497e-05
-0.00816683 -0.00125756 -0.00127421
-0.00928946 -0.00188565 2.41594e-05
-0.00939171 -0.00146117 0.000365486
-0.00940432 -0.000746693 0.000852589
-0.00745819 -0.00264544 0.00179755
-0.0093628 -0.0017601 0.000782044
-0.00936776 -0.00120903 0.000838329
-0.00796299 -0.00195773 0.00198327
-0.0093422 -0.00125084 0.00131681
-0.00924954 -0.00184928 0.00123479
-0.00812195 -0.00138288 0.00198436
-0.00928321 -0.00208758 0.000393376
-0.00760645 -0.00206147 0.00269304
-0.0087863 -0.00108791 0.00195532
-0.00836053 -0.00149347 0.00222693
-0.00798663 -0.000537943 -0.00269073
-0.00923615 -0.000737473 -0.00190579
-0.0093775 -0.000351902 -0.00141644
-0.00935914 -0.000796494 -0.00139158
-0.00922186 -0.00081708 0.00182339
-0.00939997 -0.000432932 0.00133353
-0.00938989 -0.000852424 0.00131587
-0.00788056 -0.00068853 0.00274256
-0.00943914 4.19214e-05 -0.00105295
-0.00950304 0.000385441 -0.001204
-0.00935939 -0.000381124 -0.00199364
-0.00947113 -4.52296e-05 -0.00149732
-0.0094308 -5.69699e-05 -0.002045
-0.00812434 0.000718423 -0.00258137
-0.00944656 0.000360167 -0.00157124
-0.00942406 0.000233845 -0.00200644
-0.00936744 3.58092e-05 0.00196725
-0.00945093 0.000184184 0.00136266
-0.00940844 -8.71369e-05 0.00131704
-0.00932604 -0.000470828 0.00191697
-0.00937524 -0.000203395 0.00202332
-0.00786178 0.000491358 0.00265034
-0.00768609 0.0018662 -0.002485
-0.00797595 0.00185395 -0.00185397
-0.00934591 0.000822616 -0.000987676
-0.0080741 0.00189824 -0.00119933
-0.00918524 0.000755419 -0.00179947
-0.00931317 0.000807789 -0.00141711
-0.00910045 0.00056465 0.00177982
-0.00758429 0.0017688 0.00256003
-0.00799042 0.00176809 0.00190712
-0.00930297 0.000597714 0.00134745
-0.00735572 0.00246729 -0.00174187
-0.00837129 0.00148935 -0.00229578
-0.00879691 0.00107244 -0.00198479
-0.00918643 0.00191807 -0.0013128
-0.00928282 0.0012896 -0.00134319
-0.00928227 0.0019761 -0.00079227
-0.00931791 0.00132043 -0.000493945
-0.00924843 0.00199759 -0.0003531
-0.00773064 0.00252696 -0.000469691
-0.00930896 0.00128511 -0.000914702
-0.00779567 0.00254017 0.000567075
-0.00912202 0.00119693 3.04956e-05
-0.00920595 0.00176211 6.19589e-05
-0.00935304 0.00113382 0.00123348
-0.00933155 0.00180594 0.000803097
-0.0093142 0.00106792 0.000897889
-0.00934071 0.00101303 0.000537111
-0.00737953 0.00242697 0.0018237
-0.00922315 0.00176135 0.00126796
-0.00931939 0.0017291 0.00045242
-0.00877622 0.000909197 0.00190004
-0.00838642 0.0013442 0.00224439
-0.01 0 0
-0.01 0 0
-0.01 0 0
-0.01 0 0
-0.01 0 0
-0.01 0 0
-0.01 0 0
-0.01 0 0
-0.01 0 0
-0.01 0 0
-0.01 0 0
-0.01 0 0
-0.01 0 0
-0.01 0 0
-0.01 0 0
-0.01 0 0
-0.01 0 0
-0.01 0 0
-0.01 0 0
-0.01 0 0
-0.01 0 0
-0.01 0 0
-0.01 0 0
-0.01 0 0
-0.01 0 0
-0.01 0 0
-0.01 0 0
-0.01 0 0
-0.01 0 0
-0.01 0 0
-0.01 0 0
-0.01 0 0
-0.01 0 0
-0.01 0 0
-0.01 0 0
-0.01 0 0
-0.01 0 0
-0.01 0 0
-0.01 0 0
-0.01 0 0
-0.01 0 0
-0.01 0 0
-0.01 0 0
-0.01 0 0
-0.01 0 0
-0.01 0 0
-0.01 0 0
-0.01 0 0
-0.01 0 0
-0.01 0 0
-0.01 0 0
-0.01 0 0
-0.01 0 0
-0.01 0 0
-0.01 0 0
-0.01 0 0

CELL_DATA 236
TENSORS stress float
-3805.64 -354.348 329.013
-354.348 -752.859 106.84
329.013 106.84 -179.033

-3492.82 -82.2803 126.97
-82.2803 -378.741 160.495
126.97 160.495 -234.245

-4196.12 -1084.14 884.502
-1084.14 -2532.21 -103.09
884.502 -103.09 -2689.1

-3126.9 87.7505 -278.405
87.7505 -366.905 108.629
-278.405 108.629 -234.138

-3412.05 -899.312 -651.917
-899.312 -1707.71 117.786
-651.917 117.786 -1981.36

-4451.83 433.271 -827.473
433.271 -3245.75 -29.3351
-827.473 -29.3351 -3084.6

-5163.61 -77.3723 -356.813
-77.3723 -3547.01 -68.4734
-356.813 -68.4734 -3617.17

-3061.08 64.7302 13.6989
64.7302 -209.759 -5.96883
13.6989 -5.96883 -327.841

-4055.82 190.447 280.506
190.447 -1007.12 -21.7633
280.506 -21.7633 -1099.35

-6657.12 -140.007 -362.612
-140.007 -5050.32 -24.6917
-362.612 -24.6917 -5056.28

-2788.94 -44.8236 -40.4697
-44.8236 150.754 59.9526
-40.4697 59.9526 72.1228

-3288.84 -155.757 -984.625
-155.757 -2296.88 -29.8311
-984.625 -29.8311 -1872.44

-2783.74 204.151 -787.763
204.151 -717.777 -27.1851
-787.763 -27.1851 -201.042

-3804.08 -354.511 -291.351
-354.511 -734.089 -42.6006
-291.351 -42.6006 -171.348

-2990.73 42.0024 36.1314
42.0024 174.132 -65.6806
36.1314 -65.6806 -162.055

-2895.77 -52.9616 -36.2193
-52.9616 567.49 -51.6337
-36.2193 -51.6337 461.245

-2809.96 -9.52957 -19.9916
-9.52957 81.687 -52.3118
-19.9916 -52.3118 51.0707

-3095.3 573.788 113.318
573.788 -550.295 57.6312
113.318 57.6312 -996.286

-4270.12 169.951 103.487
169.951 -620.696 17.4672
103.487 17.4672 -530.761

-3357.95 -535.366 -640.598
-535.366 -843.63 -11.8888
-640.598 -11.8888 -989.685

-2939.36 -57.9459 44.5249
-57.9459 403.565 -1.30479
44.5249 -1.30479 237.186

-4412.12 372.831 -746.268
372.831 -3425 6.88484
-746.268 6.88484 -3237.55

-3955.17 168.351 -1136.49
168.351 -2875.85 -38.1405
-1136.49 -38.1405 -2296.77

-3169.16 154.817 -180.68
154.817 -811.331 -42.655
-180.68 -42.655 -328.253

-3507.15 -2.50536 93.0364
-2.50536 -274.766 -90.6073
93.0364 -90.6073 -252.188

-4123.73 -1037.1 -766.534
-1037.1 -2512.28 145.426
-766.534 145.426 -2721.04

-2977.48 83.5201 -146.48
83.5201 202.779 114.322
-146.48 114.322 311.8

-4119.98 422.24 -189.129
422.24 -2164.9 151.179
-189.129 151.179 -2148.47

-3253.64 -134.925 -133.43
-134.925 -508.875 -164.512
-133.43 -164.512 -627.313

-3528.57 -829.509 -795.956
-829.509 -1901.96 68.1152
-795.956 68.1152 -2272.25

-3625.07 -328.901 -170.168
-328.901 -770.731 -74.7868
-170.168 -74.7868 -1136.95

-3011.2 -196.048 -218.099
-196.048 131.177 66.8167
-218.099 66.8167 110.972

-3315.22 215.439 -1055.73
215.439 -2235.51 11.8833
-1055.73 11.8833 -1735.9

-4026.39 -272.434 -96.4448
-272.434 -972.267 -124.561
-96.4448 -124.561 -957.147

-3015.23 -896.045 689.568
-896.045 -1455.78 -106.365
689.568 -106.365 -1708.6

-2762.81 -4.0117 14.3876
-4.0117 687.437 76.9183
14.3876 76.9183 496.88

-3837.54 -134.506 -79.0309
-134.506 -488.156 -28.2876
-79.0309 -28.2876 -543.614

-2802.76 104.135 128.284
104.135 -258.69 -78.1504
128.284 -78.1504 198.868

-3292.05 -184.761 -120.293
-184.761 -586.662 -69.2106
-120.293 -69.2106 -277.567

-2722.04 22.8685 -71.5311
22.8685 106.468 -115.238
-71.5311 -115.238 99.3074

-3160.22 85.8286 -261.803
85.8286 6.52652 -70.3077
-261.803 -70.3077 14.9514

-3383.18 -186.988 -520.718
-186.988 -774.186 -210.152
-520.718 -210.152 -754.828

-3270.45 137.05 182.351
137.05 -844.029 4.89521
182.351 4.89521 -373.79

-3130.31 78.3017 -400.762
78.3017 -286.004 66.8024
-400.762 66.8024 -181.415

-3282.62 865.255 -647.519
865.255 -1568.86 -84.2133
-647.519 -84.2133 -1837.2

-4187.29 -1025.68 775.045
-1025.68 -2613 -152.174
775.045 -152.174 -2840.43

-3298.19 418.453 308.661
418.453 -1931.2 -47.9419
308.661 -47.9419 -1993.09

-3788.17 358.777 -270.017
358.777 -695.658 5.43666
-270.017 5.43666 -237.298

-4046.21 985.024 -736.263
985.024 -2407.23 -104.137
-736.263 -104.137 -2689.2

-4886.04 339.273 776.955
339.273 -3882.06 -2.56487
776.955 -2.56487 -3646.07

-3187.88 190.594 228.894
190.594 -324.05 74.3757
228.894 74.3757 -292.263

-2254.2 523.913 -694.088
523.913 -283.854 -5.2634
-694.088 -5.2634 -84.3045

-2860.45 849.59 711.898
849.59 -1309.61 75.2126
711.898 75.2126 -1540.37

-3167.26 -118.347 -930.579
-118.347 -2143.55 -3.44628
-930.579 -3.44628 -1784.53

-3274.71 31.6764 -1114.16
31.6764 -2229.55 -41.1018
-1114.16 -41.1018 -1700

-3664.63 172.982 1098.45
172.982 -2531.01 -7.28103
1098.45 -7.28103 -1979.51

-2728.92 -149.086 -99.9499
-149.086 214.079 -117.391
-99.9499 -117.391 259.805

-3804.02 348.024 297.7
348.024 -740.044 -35.2783
297.7 -35.2783 -234.033

-3223.25 -141.789 -146.937
-141.789 -226.003 -20.1313
-146.937 -20.1313 -242.195

-4466.43 885.509 -260.077
885.509 -2987.37 -35.8252
-260.077 -35.8252 -3364.01

-3404.4 1133.24 -232.729
1133.24 -1803.11 -20.8116
-232.729 -20.8116 -2209.26

-3347.66 -79.079 -321.157
-79.079 -1011.96 -10.3288
-321.157 -10.3288 -959.033

-3578.71 -1151.86 -250.677
-1151.86 -1936.23 21.6143
-250.677 21.6143 -2388.55

-3575.74 334.579 178.047
334.579 -865.737 69.862
178.047 69.862 -673.548

-2785.13 238.238 592.631
238.238 -903.673 -10.3068
592.631 -10.3068 -306.94

-3290.91 -546.02 -68.6252
-546.02 -677.578 99.0954
-68.6252 99.0954 -1186.19

-3431.48 -258.943 507.565
-258.943 -1004.56 227.194
507.565 227.194 -813.739

-2896.12 210.257 215.963
210.257 -754.066 -92.1877
215.963 -92.1877 -612.194

-3279.36 1098.14 334.958
1098.14 -1765.24 24.3497
334.958 24.3497 -2161.67

-3214.58 899.746 400.554
899.746 -1817.35 39.5366
400.554 39.5366 -2151.59

-3218.5 -72.3434 -39.0248
-72.3434 -247.853 -36.7142
-39.0248 -36.7142 -409.842

-2523.88 270.584 -603.29
270.584 -667.116 27.7148
-603.29 27.7148 -174.067

-2500.98 505.892 702.217
505.892 -449.829 -12.1304
702.217 -12.1304 -287.591

-4078.03 958.457 785.718