# vtk DataFile Version 3.0
vtk output at time 1
ASCII
DATASET UNSTRUCTURED_GRID
POINTS 527 float
0 0 0 0 0 0.05 0 0 0.1 
0 0 0.15 0 0 0.2 0 0.05 0 
0 0.05 0.05 0 0.05 0.1 0 0.05 0.15 
0 0.05 0.2 0 0.1 0 0 0.1 0.05 
0 0.1 0.1 0 0.1 0.15 0 0.1 0.2 
0 0.15 0 0 0.15 0.05 0 0.15 0.1 
0 0.15 0.15 0 0.15 0.2 0 0.2 0 
0 0.2 0.05 0 0.2 0.1 0 0.2 0.15 
0 0.2 0.2 0.0332306 -0.00943593 -0.0096346 0.0386139 -0.00920128 0.0450421 
0.0397814 -0.00955159 0.099874 0.0388611 -0.00962892 0.154682 0.0328545 -0.00991133 0.209505 
0.0381061 0.0456818 -0.00964413 0.038404 0.0451528 0.209624 0.0398667 0.10049 -0.00927653 
0.0393006 0.0998407 0.209421 0.0403666 0.155567 -0.00919784 0.0400138 0.154958 0.209726 
0.0333801 0.210021 -0.0089435 0.0386783 0.209311 0.0455615 0.0402485 0.209286 0.100371 
0.0391933 0.209342 0.155102 0.0332707 0.209665 0.209579 0.0749254 -0.0119866 -0.0129829 
0.0759144 -0.0137461 0.0424706 0.0760509 -0.0135805 0.0996634 0.0743316 -0.0144694 0.156829 
0.0746254 -0.0129166 0.212903 0.0745794 0.0429404 -0.0138741 0.0747036 0.0425037 0.214292 
0.0758088 0.100237 -0.0138336 0.076327 0.0998593 0.214289 0.0754718 0.157927 -0.0146601 
0.075842 0.15697 0.21496 0.0751802 0.213643 -0.0124172 0.0755477 0.214501 0.043507 
0.0772382 0.213718 0.100573 0.0749003 0.213736 0.157663 0.0753722 0.212404 0.213846 
0.117391 -0.0106306 -0.0102195 0.112003 -0.0104959 0.0449338 0.109818 -0.0100323 0.100127 
0.111533 -0.0102039 0.154568 0.116981 -0.0113793 0.209428 0.111607 0.0452352 -0.0113245 
0.11155 0.0442095 0.211211 0.109321 0.100372 -0.0105227 0.110376 0.0992878 0.210636 
0.110418 0.15533 -0.0102815 0.111299 0.153988 0.210735 0.117193 0.209929 -0.00959544 
0.112823 0.210239 0.0455242 0.111318 0.210251 0.100499 0.112293 0.209977 0.155148 
0.117386 0.209177 0.210209 0.15 0 0 0.15 0 0.05 
0.15 0 0.1 0.15 0 0.15 0.15 0 0.2 
0.15 0.05 0 0.15 0.05 0.05 0.15 0.05 0.1 
0.15 0.05 0.15 0.15 0.05 0.2 0.15 0.1 0 
0.15 0.1 0.05 0.15 0.1 0.1 0.15 0.1 0.15 
0.15 0.1 0.2 0.15 0.15 0 0.15 0.15 0.05 
0.15 0.15 0.1 0.15 0.15 0.15 0.15 0.15 0.2 
0.15 0.2 0 0.15 0.2 0.05 0.15 0.2 0.1 
0.15 0.2 0.15 0.15 0.2 0.2 0 0.025 0 
0.0152776 -0.00557445 -0.00819357 0.0202997 -0.00746942 0.0201271 0 0 0.025 
0 0.025 0.025 0.0210162 -0.0073851 0.046921 0 0.025 0.05 
0 0.025 0.075 0 0 0.075 0 0.025 0.1 
0.0208462 -0.00766193 0.0734698 0.0212547 -0.00704505 0.100091 0.0210263 -0.00739028 0.126685 
0 0 0.125 0.0211236 -0.00721599 0.153007 0 0.025 0.175 
0 0.025 0.15 0 0 0.175 0 0.025 0.125 
0.0203577 -0.00757695 0.179714 0 0.025 0.2 0.0150903 -0.00576739 0.208103 
0.0213676 0.0199256 0.0204661 0 0.05 0.025 0.017494 0.0211684 -0.00722169 
0.0194804 0.047451 -0.00631742 0.0214115 0.0749795 -0.00720105 0 0.075 0.025 
0 0.075 0 0.0215415 0.0201169 0.0472127 0 0.05 0.075 
0 0.075 0.05 0.0424788 0.0728791 0.0171695 0.0222374 0.0744328 0.020024 
0.0402208 0.0454413 0.017729 0.0207894 0.0473361 0.0203325 0.0414139 0.0177571 0.0724881 
0.0403249 0.0181719 0.0450491 0 0.075 0.075 0.0435738 0.0727393 0.0442689 
0.0414408 0.0176814 0.0997374 0.0219855 0.019835 0.0736448 0.0222142 0.0201792 0.12655 
0.0429104 0.0168744 0.127579 0.0220089 0.0198416 0.100092 0 0.05 0.125 
0 0.075 0.125 0 0.075 0.1 0 0.05 0.175 
0.0218296 0.0201945 0.152919 0.021974 0.0738893 0.180135 0.0211604 0.0470642 0.179728 
0.0415722 0.0723662 0.182466 0 0.075 0.15 0.0406018 0.0449762 0.182202 
0.0421262 0.0172405 0.155072 0.0214023 0.0198217 0.179554 0.0212196 0.0744636 0.207451 
0.0197784 0.0471377 0.206415 0.0175318 0.0209737 0.207218 0 0.075 0.175 
0 0.075 0.2 0 0.125 0 0.021346 0.101026 -0.00728741 
0 0.1 0.025 0.0433847 0.100464 0.0169946 0 0.125 0.025 
0 0.125 0.05 0.0225716 0.126939 0.0204079 0.0223424 0.100759 0.0203079 
0 0.1 0.075 0.0434312 0.127916 0.017179 0 0.125 0.075 
0 0.1 0.125 0.0432255 0.155516 0.12781 0.0426299 0.127652 0.155466 
0.0421505 0.0999901 0.156065 0.0428047 0.155769 0.10016 0.0435607 0.128004 0.0445482 
0.0433273 0.100444 0.044215 0 0.125 0.1 0.0420359 0.0442661 0.0998598 
0.0430977 0.0441867 0.127674 0.0755256 0.100103 0.10009 0.0433353 0.155413 0.155427 
0.042202 0.127536 0.182554 0 0.125 0.175 0 0.125 0.15 
0.0223413 0.12662 0.180028 0.0221022 0.100382 0.180052 0 0.1 0.175 
0 0.125 0.125 0.0416745 0.0998334 0.182585 0.0430703 0.0443913 0.155351 
0.0210662 0.10059 0.207725 0 0.125 0.2 0 0.15 0.025 
0.0213809 0.153249 -0.00606504 0.0183157 0.178667 -0.00673401 0.021513 0.179652 0.0206633 
0.0213624 0.127126 -0.00676056 0 0.175 0.025 0 0.175 0 
0.0221594 0.153234 0.0207975 0.0215858 0.179779 0.0474546 0.0425574 0.155411 0.0178652 
0.041245 0.18233 0.0455233 0 0.175 0.05 0 0.15 0.075 
0.0420026 0.182356 0.0729283 0.0221015 0.17999 0.0738508 0.0422275 0.18223 0.100197 
0.0221925 0.179886 0.100286 0 0.175 0.1 0.0222658 0.179736 0.126707 
0 0.175 0.075 0.0431163 0.182872 0.127863 0 0.15 0.125 
0 0.175 0.125 0.0434025 0.155437 0.0448107 0 0.15 0.175 
0.0220531 0.152944 0.179711 0.0219028 0.179525 0.15302 0.0420853 0.154849 0.182477 
0 0.175 0.15 0.0426282 0.182664 0.155238 0.0215955 0.179472 0.179672 
0.0211781 0.152926 0.206658 0.0181189 0.178411 0.207089 0 0.175 0.175 
0.0210719 0.126799 0.207305 0 0.175 0.2 0.0156327 0.205338 -0.00780782 
0.0204934 0.2072 0.0204867 0 0.2 0.025 0.0211024 0.207275 0.0471379 
0 0.2 0.075 0.0214783 0.206748 0.100328 0.0211882 0.207123 0.126855 
0.0209728 0.207395 0.0737631 0 0.2 0.125 0.0212928 0.206892 0.153287 
0 0.2 0.175 0.0206662 0.206944 0.179829 0.0155012 0.205105 0.208102 
0.0361982 -0.00939612 0.0173422 0.0538482 -0.0110199 -0.0110877 0.0554101 0.0161797 -0.0114647 
0.0366364 0.0180827 -0.0101079 0.0556301 -0.0110729 0.015957 0.0573123 0.016249 0.0157768 
0.0394683 0.0181762 0.0173122 0.0576909 -0.0113322 0.071508 0.0575048 -0.0113548 0.0434785 
0.038991 -0.00948509 0.072314 0.0583565 -0.0115657 0.0998116 0.0390675 -0.00959101 0.127427 
0.0574103 0.0155963 0.184257 0.0552844 -0.0118194 0.183953 0.0570017 -0.012146 0.156008 
0.0581872 -0.0123308 0.128147 0.0395901 0.0176759 0.18259 0.0359993 -0.00976994 0.182464 
0.0553369 0.0155254 0.211426 0.0534563 -0.0117589 0.210986 0.0366651 0.0175549 0.210092 
0.0564459 0.0441509 -0.0118101 0.0390596 0.0729898 -0.00955823 0.0389898 0.0724527 0.20962 
0.0566247 0.0435934 0.21182 0.0579053 0.0719034 -0.0120059 0.0586046 0.10024 -0.0119448 
0.0400555 0.128035 -0.00939691 0.0586124 0.12853 -0.0122378 0.0395574 0.127381 0.209712 
0.0581219 0.0996899 0.211759 0.0576272 0.071485 0.21182 0.05801 0.12778 0.211968 
0.0378897 0.182896 -0.00967873 0.040674 0.182548 0.0179007 0.0582001 0.157111 -0.01169 
0.0405203 0.182133 0.182648 0.0375435 0.182353 0.210249 0.0579971 0.156234 0.212063 
0.0363411 0.209659 0.018039 0.0540897 0.21244 -0.0101905 0.0563864 0.185245 -0.0109377 
0.0582029 0.211491 0.0723426 0.039274 0.209332 0.0728952 0.0560024 0.212217 0.0167624 
0.0586655 0.184858 0.0162195 0.0576251 0.212005 0.044356 0.0591338 0.211502 0.100459 
0.0395751 0.209251 0.127832 0.0365355 0.209411 0.182639 0.0585738 0.184166 0.18458 
0.0576947 0.211865 0.156642 0.056174 0.211531 0.184407 0.0589547 0.211963 0.128579 
0.0540644 0.211411 0.21129 0.0561298 0.18421 0.211685 0.0748949 0.0150142 -0.0132176 
0.0754913 -0.0126475 0.0143121 0.096324 -0.0110942 -0.0117264 0.0951292 -0.0113166 0.015358 
0.0755572 0.0145543 0.0142227 0.0937976 -0.0116149 0.043165 0.0762703 -0.013778 0.0709454 
0.0921083 0.0437487 0.0152412 0.0756014 0.0428769 0.0143971 0.0754952 0.0428519 0.15693 
0.107854 0.0445919 0.127746 0.107852 0.0443953 0.100058 0.0915056 0.0438486 0.0432721 
0.0757811 0.0429334 0.0431072 0.0758124 -0.0144779 0.128193 0.093133 -0.0118665 0.0714065 
0.092592 -0.0124809 0.127893 0.0906399 0.0433375 0.156921 0.0920893 -0.0118633 0.0998516 
0.0746158 0.0140717 0.185798 0.0746426 -0.0133508 0.185322 0.0753577 0.0427818 0.185872 
0.0923289 -0.0120592 0.156221 0.0913448 0.0429357 0.18484 0.0746411 0.0142257 0.213475 
0.0958851 -0.0121813 0.210896 0.0942442 -0.0119414 0.183855 0.0752476 0.0714793 -0.0139783 
0.0948926 0.0159691 -0.0118538 0.0936669 0.0160702 0.015291 0.0938407 0.0437456 -0.0121375 
0.0921153 0.0716622 -0.0124301 0.0943556 0.0149611 0.211428 0.0926125 0.0152703 0.184423 
0.0758045 0.0711637 0.214423 0.0925424 0.0709364 0.212795 0.0937465 0.0428152 0.212107 
0.107631 0.100001 0.0438476 0.0915212 0.099995 -0.0125046 0.0756606 0.129145 -0.0142004 
0.107917 0.127693 0.0441944 0.0913405 0.157133 0.0439305 0.0763264 0.15751 0.0435574 
0.107486 0.0991448 0.183662 0.107543 0.0993732 0.156296 0.106771 0.127125 0.15628 
0.0762673 0.156916 0.185978 0.0758432 0.156582 0.156923 0.0919286 0.156539 0.185018 
0.0909153 0.15641 0.156574 0.10782 0.126755 0.183558 0.0922462 0.0992153 0.213094 
0.0764595 0.128596 0.21461 0.0754117 0.186391 -0.01337 0.075811 0.186499 0.0145679 
0.0929057 0.185187 0.0158575 0.0944926 0.185443 -0.0115191 0.0922416 0.15709 -0.0120275 
0.108789 0.155389 0.0447489 0.091976 0.185123 0.0437679 0.0764177 0.186208 0.0431035 
0.0919584 0.128708 -0.0120175 0.0753728 0.185168 0.186364 0.0753644 0.185272 0.214371 
0.0928369 0.184386 0.184989 0.094781 0.184117 0.212188 0.108774 0.154162 0.183589 
0.0933041 0.155727 0.212837 0.0928913 0.127255 0.21317 0.0755133 0.213988 0.0151235 
0.0952456 0.212497 0.0162299 0.0966018 0.212717 -0.0107326 0.0768266 0.214265 0.0719538 
0.0936301 0.212747 0.0438433 0.0765173 0.213994 0.129124 0.110005 0.183025 0.100327 
0.0934217 0.212748 0.100574 0.109622 0.155883 0.1002 0.0929677 0.212219 0.129007 
0.0936138 0.212898 0.0720416 0.0753098 0.212933 0.186068 0.0924914 0.211628 0.157186 
0.0947978 0.211401 0.184677 0.0967503 0.211378 0.211633 0.114452 -0.0106159 0.0168941 
0.113677 0.0171708 -0.0111751 0.135404 -0.00566896 -0.00916509 0.132654 0.0209345 -0.00857497 
0.11134 0.0171829 0.0166308 0.128263 0.0469055 0.0461554 0.128313 0.0193466 0.0732716 
0.128014 0.0466067 0.0732422 0.110057 0.0448032 0.01693 0.130074 -0.00747411 0.0192673 
0.129143 0.0198837 0.0189371 0.110788 -0.0102748 0.0724838 0.129111 -0.00724689 0.0462894 
[...]
POINT_DATA 527
VECTORS displacement float
0 0 0
0 0 0
0 0 0
0 0 0
0 0 0
0 0 0
0 0 0
0 0 0
0 0 0
0 0 0
0 0 0
0 0 0
0 0 0
0 0 0
0 0 0
0 0 0
0 0 0
0 0 0
0 0 0
0 0 0
0 0 0
0 0 0
0 0 0
0 0 0
0 0 0
-0.0167694 -0.00943593 -0.0096346
-0.0113861 -0.00920128 -0.00495785
-0.0102186 -0.00955159 -0.000125994
-0.0111389 -0.00962892 0.00468205
-0.0171455 -0.00991133 0.00950516
-0.0118939 -0.00431821 -0.00964413
-0.011596 -0.00484724 0.00962358
-0.0101333 0.00049048 -0.00927653
-0.0106994 -0.000159292 0.00942058
-0.00963341 0.00556666 -0.00919784
-0.00998615 0.00495781 0.00972589
-0.0166199 0.0100208 -0.0089435
-0.0113217 0.00931055 -0.00443848
-0.00975149 0.0092861 0.00037063
-0.0108067 0.00934232 0.00510211
-0.0167293 0.00966488 0.00957916
-0.0250746 -0.0119866 -0.0129829
-0.0240856 -0.0137461 -0.00752942
-0.0239491 -0.0135805 -0.000336632
-0.0256684 -0.0144694 0.00682942
-0.0253746 -0.0129166 0.0129033
-0.0254206 -0.00705965 -0.0138741
-0.0252964 -0.00749632 0.0142921
-0.0241912 0.000236621 -0.0138336
-0.0236731 -0.000140729 0.0142891
-0.0245282 0.00792725 -0.0146601
-0.024158 0.00697043 0.0149596
-0.0248198 0.0136432 -0.0124172
-0.0244523 0.0145013 -0.00649303
-0.0227618 0.0137184 0.000572576
-0.0250997 0.0137361 0.00766288
-0.0246278 0.0124042 0.0138461
-0.0326095 -0.0106306 -0.0102195
-0.0379974 -0.0104959 -0.0050662
-0.0401824 -0.0100323 0.000126815
-0.0384672 -0.0102039 0.00456784
-0.0330192 -0.0113793 0.00942803
-0.0383933 -0.0047648 -0.0113245
-0.0384495 -0.00579053 0.0112111
-0.0406793 0.000371968 -0.0105227
-0.0396241 -0.000712245 0.0106359
-0.0395825 0.00533038 -0.0102815
-0.038701 0.00398784 0.0107354
-0.0328075 0.00992933 -0.00959544
-0.0371773 0.0102394 -0.00447581
-0.0386819 0.0102508 0.000498554
-0.0377073 0.00997657 0.00514757
-0.0326143 0.00917659 0.0102086
-0.05 0 0
-0.05 0 0
-0.05 0 0
-0.05 0 0
-0.05 0 0
-0.05 0 0
-0.05 0 0
-0.05 0 0
-0.05 0 0
-0.05 0 0
-0.05 0 0
-0.05 0 0
-0.05 0 0
-0.05 0 0
-0.05 0 0
-0.05 0 0
-0.05 0 0
-0.05 0 0
-0.05 0 0
-0.05 0 0
-0.05 0 0
-0.05 0 0
-0.05 0 0
-0.05 0 0
-0.05 0 0
0 0 0
-0.00972245 -0.00557445 -0.00819357
-0.00470032 -0.00746942 -0.00487285
0 0 0
0 0 0
-0.00398378 -0.0073851 -0.00307902
0 0 0
0 0 0
0 0 0
0 0 0
-0.00415378 -0.00766193 -0.00153019
-0.00374531 -0.00704505 9.08443e-05
-0.00397375 -0.00739028 0.00168461
0 0 0
-0.00387642 -0.00721599 0.00300695
0 0 0
0 0 0
0 0 0
0 0 0
-0.00464229 -0.00757695 0.00471363
0 0 0
-0.00990974 -0.00576739 0.00810328
-0.00363239 -0.00507438 -0.00453393
0 0 0
-0.00750595 -0.00383156 -0.00722169
-0.00551964 -0.00254901 -0.00631742
-0.00358854 -2.05066e-05 -0.00720105
0 0 0
0 0 0
-0.0034585 -0.00488313 -0.00278732
0 0 0
0 0 0
-0.00752121 -0.00212095 -0.00783048
-0.00276264 -0.000567159 -0.00497595
-0.00977923 -0.00455873 -0.00727097
-0.00421057 -0.00266389 -0.00466749
-0.00858614 -0.00724288 -0.00251195
-0.00967508 -0.00682812 -0.00495095
0 0 0
-0.00642624 -0.00226071 -0.0057311
-0.00855923 -0.00731856 -0.000262562
-0.00301454 -0.00516497 -0.00135523
-0.00278577 -0.00482082 0.00154969
-0.00708958 -0.00812559 0.00257933
-0.0029911 -0.0051584 9.24165e-05
0 0 0
0 0 0
0 0 0
0 0 0
-0.00317042 -0.00480552 0.00291918
-0.00302602 -0.00111066 0.0051353
-0.00383956 -0.0029358 0.00472775
-0.0084278 -0.00263384 0.00746597
0 0 0
-0.00939818 -0.00502382 0.00720159
-0.00787382 -0.00775949 0.00507244
-0.00359768 -0.00517833 0.00455356
-0.00378037 -0.000536377 0.00745096
-0.00522162 -0.00286233 0.00641514
-0.00746821 -0.00402631 0.00721823
0 0 0
0 0 0
0 0 0
-0.00365398 0.00102593 -0.00728741
0 0 0
-0.0066153 0.000463547 -0.00800544
0 0 0
0 0 0
-0.00242845 0.00193916 -0.00459212
-0.00265756 0.000759141 -0.00469209
0 0 0
-0.00656876 0.00291627 -0.00782097
0 0 0
0 0 0
-0.00677455 0.00551638 0.00280995
-0.00737008 0.0026517 0.0054663
-0.00784948 -9.94687e-06 0.0060645
-0.00719535 0.0057688 0.000159983
-0.00643931 0.00300437 -0.0054518
-0.00667269 0.000444201 -0.00578503
0 0 0
-0.00796407 -0.00573395 -0.000140173
-0.00690232 -0.00581328 0.00267405
-0.0244744 0.000103498 8.99349e-05
-0.00666469 0.0054126 0.00542739
-0.00779803 0.0025362 0.00755412
0 0 0
0 0 0
-0.0026587 0.00162029 0.00502825
-0.0028978 0.000382247 0.00505203
0 0 0
0 0 0
-0.00832552 -0.000166619 0.00758521
-0.00692972 -0.00560873 0.00535109
-0.00393379 0.000590305 0.00772542
0 0 0
0 0 0
-0.00361915 0.00324873 -0.00606504
-0.00668433 0.00366743 -0.00673401
-0.00348702 0.00465245 -0.00433666
-0.00363759 0.00212599 -0.00676056
0 0 0
0 0 0
-0.00284056 0.0032339 -0.00420247
-0.00341419 0.00477876 -0.00254539
-0.00744257 0.00541056 -0.0071348
-0.008755 0.00732956 -0.00447672
0 0 0
0 0 0
-0.00799739 0.00735624 -0.0020717
-0.00289847 0.00499031 -0.00114916
-0.00777245 0.0072297 0.000197194
-0.00280751 0.00488566 0.000286349
0 0 0
-0.00273417 0.00473596 0.00170729
0 0 0
-0.00688368 0.00787173 0.00286289
0 0 0
0 0 0
-0.00659747 0.00543654 -0.00518927
0 0 0
-0.00294693 0.00294371 0.00471126
-0.00309717 0.00452519 0.00301995
-0.0079147 0.00484879 0.00747693
0 0 0
-0.00737181 0.00766434 0.00523807
-0.00340452 0.00447202 0.00467158
-0.0038219 0.00292637 0.00665822
-0.00688109 0.00341093 0.00708851
0 0 0
-0.00392812 0.00179938 0.00730508
0 0 0
-0.00936728 0.00533755 -0.00780782
-0.0045066 0.0072004 -0.00451332
0 0 0
-0.00389762 0.0072754 -0.0028621
0 0 0
-0.00352175 0.00674751 0.000327728
-0.00381179 0.00712263 0.00185548
-0.00402722 0.00739486 -0.00123694
0 0 0
-0.00370722 0.00689191 0.00328691
0 0 0
-0.00433383 0.00694404 0.00482917
-0.0094988 0.00510483 0.00810173
-0.0138018 -0.00939612 -0.00765781
-0.0211518 -0.0110199 -0.0110877
-0.0195899 -0.0088203 -0.0114647
-0.0133636 -0.00691729 -0.0101079
-0.0193699 -0.0110729 -0.00904304
-0.0176877 -0.00875096 -0.00922316
-0.0105317 -0.00682385 -0.00768779
-0.0173091 -0.0113322 -0.00349195
-0.0174952 -0.0113548 -0.00652148
-0.011009 -0.00948509 -0.00268603
-0.0166435 -0.0115657 -0.000188371
-0.0109325 -0.00959101 0.0024265
-0.0175897 -0.00940369 0.00925668
-0.0197156 -0.0118194 0.00895276
-0.0179983 -0.012146 0.00600832
-0.0168128 -0.0123308 0.00314657
-0.0104099 -0.00732405 0.00759011
-0.0140007 -0.00976994 0.0074641
-0.0196631 -0.00947457 0.0114265
-0.0215437 -0.0117589 0.0109863
-0.0133349 -0.00744509 0.0100918
-0.0185541 -0.00584914 -0.0118101
-0.0109404 -0.00201016 -0.00955823
-0.0110102 -0.00254733 0.00961987
-0.0183753 -0.00640662 0.0118201
-0.0170947 -0.00309663 -0.0120059
-0.0163954 0.000240246 -0.0119448
-0.00994446 0.00303539 -0.00939691
-0.0163876 0.00353002 -0.0122378
-0.0104426 0.00238104 0.00971193
-0.0168781 -0.000310082 0.0117594
-0.0173728 -0.00351498 0.0118204
-0.01699 0.00277976 0.0119677
-0.0121103 0.00789597 -0.00967873
-0.00932599 0.00754785 -0.00709931
-0.0167999 0.00711094 -0.01169
-0.0094797 0.00713264 0.0076477
-0.0124565 0.00735288 0.0102494
-0.0170029 0.00623446 0.0120631
-0.0136589 0.00965857 -0.00696096
-0.0209103 0.0124402 -0.0101905
-0.0186136 0.0102454 -0.0109377
-0.0167971 0.0114915 -0.00265744
-0.010726 0.00933204 -0.00210485
-0.0189976 0.0122167 -0.00823763
-0.0163346 0.00985836 -0.00878052
-0.0173749 0.012005 -0.00564396
-0.0158662 0.0115024 0.000459367
-0.0104249 0.00925065 0.0028321
-0.0134645 0.00941077 0.00763858
-0.0164262 0.00916604 0.0095795
-0.0173053 0.0118655 0.00664164
-0.018826 0.0115313 0.00940708
-0.0160453 0.0119627 0.0035794
-0.0209356 0.0114111 0.0112898
-0.0188702 0.00921043 0.0116854
-0.0251051 -0.00998583 -0.0132176
-0.0245087 -0.0126475 -0.0106879
-0.028676 -0.0110942 -0.0117264
-0.0298708 -0.0113166 -0.00964197
-0.0244428 -0.0104457 -0.0107773
-0.0312024 -0.0116149 -0.006835
-0.0237297 -0.013778 -0.00405465
-0.0328917 -0.00625129 -0.00975883
-0.0243986 -0.00712315 -0.0106029
-0.0245048 -0.00714807 0.00692958
-0.0421459 -0.00540808 0.00274614
-0.0421485 -0.00560471 5.76342e-05
-0.0334944 -0.00615144 -0.0067279
-0.0242189 -0.0070666 -0.00689275
-0.0241876 -0.0144779 0.0031926
-0.031867 -0.0118665 -0.00359354
-0.032408 -0.0124809 0.002893
-0.0343601 -0.00666248 0.00692057
-0.0329107 -0.0118633 -0.000148392
-0.0253842 -0.0109283 0.0107982
-0.0253574 -0.0133508 0.0103223
-0.0246423 -0.00721824 0.0108722
-0.0326711 -0.0120592 0.00622086
-0.0336552 -0.00706431 0.00984002
-0.0253589 -0.0107743 0.013475
-0.0291149 -0.0121813 0.010896
-0.0307558 -0.0119414 0.00885501
-0.0247524 -0.00352074 -0.0139783
-0.0301074 -0.00903091 -0.0118538
-0.0313331 -0.00892979 -0.009709
-0.0311593 -0.00625441 -0.0121375
-0.0328847 -0.00333781 -0.0124301
-0.0306444 -0.0100389 0.0114283
-0.0323875 -0.00972974 0.0094234
-0.0241955 -0.00383627 0.0144235
-0.0324576 -0.00406357 0.0127951
-0.0312535 -0.00718482 0.0121067
-0.0423695 9.32826e-07 -0.00615242
-0.0334788 -5.01495e-06 -0.0125046
-0.0243394 0.00414484 -0.0142004
-0.0420834 0.00269266 -0.0058056
-0.0336595 0.00713299 -0.00606954
-0.0236736 0.00750962 -0.0064426
-0.0425138 -0.000855179 0.00866178
-0.0424574 -0.00062679 0.00629619
-0.043229 0.00212482 0.00627967
-0.0237327 0.00691581 0.0109779
-0.0241568 0.00658212 0.00692252
-0.0330714 0.00653898 0.010018
-0.0340847 0.00641031 0.00657356
-0.0421802 0.0017547 0.00855834
-0.0327538 -0.000784703 0.0130945
-0.0235405 0.00359648 0.0146101
-0.0245883 0.0113905 -0.01337
-0.024189 0.0114988 -0.0104321
-0.0320943 0.0101866 -0.00914246
-0.0305074 0.010443 -0.0115191
-0.0327584 0.00708961 -0.0120275
-0.041211 0.00538851 -0.00525107
-0.033024 0.0101232 -0.00623212
-0.0235823 0.0112075 -0.00689645
-0.0330416 0.00370803 -0.0120175
-0.0246272 0.0101681 0.0113643
-0.0246357 0.0102723 0.0143708
-0.0321631 0.00938588 0.00998904
-0.030219 0.00911739 0.0121881
-0.041226 0.00416186 0.00858939
-0.0316959 0.0057265 0.0128374
-0.0321087 0.00225543 0.0131701
-0.0244867 0.0139884 -0.00987651
-0.0297544 0.0124966 -0.00877006
-0.0283982 0.0127165 -0.0107326
-0.0231734 0.0142655 -0.00304618
-0.0313699 0.0127469 -0.00615667
-0.0234827 0.0139939 0.00412413
-0.0399948 0.00802546 0.000327194
-0.0315784 0.0127476 0.000573651
-0.0403783 0.00588328 0.000200334
-0.0320323 0.012219 0.00400719
-0.0313862 0.0128983 -0.00295841
-0.0246902 0.0129329 0.0110679
-0.0325086 0.0116282 0.00718582
-0.0302022 0.0114012 0.0096766
-0.0282497 0.0113781 0.0116328
-0.0355476 -0.0106159 -0.00810588
-0.0363231 -0.00782915 -0.0111751
-0.0395961 -0.00566896 -0.00916509
-0.0423462 -0.00406546 -0.00857497
-0.0386603 -0.00781711 -0.00836915
-0.0467369 -0.00309451 -0.00384462
-0.0466869 -0.00565339 -0.00172837
-0.0469857 -0.00339329 -0.00175776
-0.039943 -0.00519679 -0.00806996
-0.0449257 -0.00747411 -0.00573265
-0.0458568 -0.00511627 -0.00606289
-0.0392123 -0.0102748 -0.0025162
-0.0458886 -0.00724689 -0.00371058
-0.0463931 -0.00514834 -0.00390345
-0.0457502 -0.00788406 -0.0017719
-0.0468916 -0.00585471 -8.55368e-05
-0.0394287 -0.0102504 0.00264459
-0.0474809 -0.00453059 0.00152758
-0.047348 -0.00411271 3.58104e-05
-0.0409897 -0.00523038 -0.00540995
-0.0461088 -0.00741738 1.05814e-06
-0.0467258 -0.00585816 0.00148782
-0.0469943 -0.00322675 0.00345371
-0.0359166 -0.0108594 0.00741102
-0.046036 -0.00723487 0.00329976
-0.0465697 -0.00513391 0.00349942
-0.0392457 -0.00835336 0.00807088
-0.0460066 -0.0053495 0.00555548
-0.0450642 -0.00772869 0.00518043
-0.0404474 -0.00601875 0.00802578
-0.0456565 -0.00820208 0.00156658
-0.0367406 -0.00877772 0.0107871
-0.0426052 -0.00453772 0.00801398
-0.0398782 -0.00608255 0.00857951
-0.039506 -0.00204648 -0.010894
-0.0454307 -0.00307822 -0.00786994
-0.046664 -0.00144203 -0.00583301
-0.0464612 -0.00337042 -0.00589924
-0.0455253 -0.00364722 0.00733969
-0.0468476 -0.00198386 0.0053542
-0.046663 -0.00377088 0.00538056
-0.0390978 -0.00312989 0.01093
-0.0473707 0.00021732 -0.00418844
-0.0474744 0.00164235 -0.00477593
-0.0460974 -0.00150814 -0.00806703
-0.0472125 -0.000110893 -0.00595663
-0.0463492 -0.000237391 -0.00810743
-0.040097 0.00305942 -0.0103691
-0.0469365 0.00150428 -0.00636441
-0.0463619 0.00091768 -0.00806698
-0.0462828 -0.000175721 0.00777632
-0.0471523 0.000636129 0.00546701
-0.0470426 -0.000544384 0.00529398
-0.0460778 -0.00214186 0.00762201
-0.0461455 -0.001103 0.00801387
-0.0390236 0.00167006 0.0107677
-0.0371118 0.00777041 -0.0101872
-0.0392404 0.00776125 -0.00780784
-0.046638 0.00339134 -0.00406576
-0.0402014 0.00793116 -0.0051134
-0.0450846 0.00313305 -0.00739482
-0.046181 0.00335847 -0.00589079
-0.0450035 0.00198189 0.00729311
-0.0367157 0.00677928 0.0107388
-0.0395175 0.00692419 0.00833638
-0.046476 0.00224269 0.00559662
-0.0352826 0.00990145 -0.00741684
-0.0397836 0.00595204 -0.00904654
-0.0424039 0.0042886 -0.00835768
-0.0445748 0.0078573 -0.00564232
-0.0456552 0.00536168 -0.00578634
-0.0454284 0.00792435 -0.00349519
-0.0464522 0.00535784 -0.00217139
-0.0456007 0.00783085 -0.00153957
-0.0383494 0.0102771 -0.00206912
-0.0461648 0.00527743 -0.00396518
-0.0386274 0.010117 0.00284786
-0.0456163 0.00491872 0.000204585
-0.0456598 0.00697959 0.000356539
-0.0462304 0.004349 0.00541728
-0.0458952 0.00702788 0.00373553
-0.0464069 0.00413188 0.00396061
-0.0467726 0.00394298 0.00245049
-0.0353886 0.00923385 0.0080809
-0.0451079 0.00689949 0.0056338
-0.0461711 0.00665813 0.00215806
-0.0424701 0.00313348 0.00804159
-0.0399386 0.00492514 0.00900717
-0.05 0 0
-0.05 0 0
-0.05 0 0
-0.05 0 0
-0.05 0 0
-0.05 0 0
-0.05 0 0
-0.05 0 0
-0.05 0 0
-0.05 0 0
-0.05 0 0
-0.05 0 0
-0.05 0 0
-0.05 0 0
-0.05 0 0
-0.05 0 0
-0.05 0 0
-0.05 0 0
-0.05 0 0
-0.05 0 0
-0.05 0 0
-0.05 0 0
-0.05 0 0
-0.05 0 0
-0.05 0 0
-0.05 0 0
-0.05 0 0
-0.05 0 0
-0.05 0 0
-0.05 0 0
-0.05 0 0
-0.05 0 0
-0.05 0 0
-0.05 0 0
-0.05 0 0
-0.05 0 0
-0.05 0 0
-0.05 0 0
-0.05 0 0
-0.05 0 0
-0.05 0 0
-0.05 0 0
-0.05 0 0
-0.05 0 0
-0.05 0 0
-0.05 0 0
-0.05 0 0
-0.05 0 0
-0.05 0 0
-0.05 0 0
-0.05 0 0
-0.05 0 0
-0.05 0 0
-0.05 0 0
-0.05 0 0
-0.05 0 0

CELL_DATA 236
TENSORS stress float
-9718.58 404.075 -978.199
404.075 -2576.74 659.129
-978.199 659.129 528.9

-9314.39 123.186 -47.1712
123.186 -1631.54 669.941
-47.1712 669.941 -554.566

-12219.5 -1301.43 1135.64
-1301.43 -7939.68 -1911.52
1135.64 -1911.52 -8973.8

-7011.11 102.949 -968.489
102.949 411.703 655.497
-968.489 655.497 1028.8

-10935.5 -1507.17 -1253.07
-1507.17 -4865.07 1344.79
-1253.07 1344.79 -6568.78

-13326.2 554.201 -681.427
554.201 -10679 -629.434
-681.427 -629.434 -9685.25

-14695.6 255.322 102.652
255.322 -9082.31 -118.568
102.652 -118.568 -9496.73

-8422.73 -477.402 225.276
-477.402 -475.346 -146.269
225.276 -146.269 -151.553

-9699.48 540.768 469.285
540.768 -1772.49 -29.1991
469.285 -29.1991 -2275.33

-18642 -344.262 109.293
-344.262 -15536.6 -58.7686
109.293 -58.7686 -15745.2

-7825.72 -758.763 452.984
-758.763 1198.67 260.751
452.984 260.751 520.853

-9425.86 -331.194 -2181.76
-331.194 -7062.07 -156.179
-2181.76 -156.179 -4174.62

-7780.38 481.893 -1788.74
481.893 -1977.16 -566.227
-1788.74 -566.227 1096.48

-9833.46 282.312 1123.2
282.312 -2712.22 -307.417
1123.2 -307.417 181.368

-8000.32 564.275 889.215
564.275 2141.48 -162.287
889.215 -162.287 -444.914

-7871.69 -891.867 -695.449
-891.867 3030.88 -119.57
-695.449 -119.57 2194.58

-7954.91 378.046 446.842
378.046 772.492 -212.01
446.842 -212.01 478.346

-8915.84 876.562 233.493
876.562 -532.733 337.707
233.493 337.707 -3127.26

-10171.3 449.238 363.979
449.238 -1686.94 513.569
363.979 513.569 -1380.49

-9249.51 -1150.06 -856.824
-1150.06 -1866.75 609.215
-856.824 609.215 -2797.59

-7998.07 632.274 891.975
632.274 2682.21 88.6317
891.975 88.6317 1476.1

-13660 397.205 -770.42
397.205 -12165.8 -317.013
-770.42 -317.013 -11127

-12446.8 218.466 -1488.54
218.466 -10711.2 -593.55
-1488.54 -593.55 -6727.65

-8756.17 -435.632 390.564
-435.632 -3509.26 -366.073
390.564 -366.073 -647.302

-8634.73 -227.594 39.6463
-227.594 254.006 -491.627
39.6463 -491.627 316.008

-12298.6 -1369.02 -1034.97
-1369.02 -7870.66 1770.76
-1034.97 1770.76 -9579.41

-8215.37 -248.021 -51.5395
-248.021 1439.93 559.724
-51.5395 559.724 2313.29

-11253.6 249.461 -359.856
249.461 -5257 655.725
-359.856 655.725 -5923.1

-8534.1 -45.9702 -253.625
-45.9702 -600.024 -589.508
-253.625 -589.508 -1112.52

-10763.8 -1521.24 -1691.1
-1521.24 -5883.91 1148.58
-1691.1 1148.58 -7243.8

-10008.3 20.3051 -280.473
20.3051 -1891.02 -290.121
-280.473 -290.121 -2712.01

-7928.61 -259.154 -65.5065
-259.154 1844.79 390.722
-65.5065 390.722 1446.38

-10586 409.613 -1747.64
409.613 -8405.94 -369.97
-1747.64 -369.97 -5058

-10088.6 -180.739 -279.111
-180.739 -2866.52 -637.584
-279.111 -637.584 -2370.6

-9393.37 -1912.01 1464.6
-1912.01 -3549.45 -1373.64
1464.6 -1373.64 -5202.71

-7639.11 1051.17 -655.46
1051.17 3413.35 272.762
-655.46 272.762 2244.87

-9623.39 23.0497 -288.172
23.0497 -849.903 -66.5889
-288.172 -66.5889 -847.383

-6897.39 710.02 827.812
710.02 -338.045 -457.691
827.812 -457.691 2633.25

-8775.29 506.641 643.036
506.641 -2164.31 -98.2997
643.036 -98.2997 70.2662

-7710.05 453.995 343.277
453.995 904.644 -558.725
343.277 -558.725 688.171

-8264.27 -220.684 -349.899
-220.684 937.867 -339.839
-349.899 -339.839 980.154

-9703.74 14.5912 -452.611
14.5912 -2286.37 -706.858
-452.611 -706.858 -2138.84

-8871.42 -446.641 -354.737
-446.641 -3629.41 177.012
-354.737 177.012 -722.975

-6401.21 340.353 -1123.73
340.353 1763.26 333.513
-1123.73 333.513 1504.58

-10518.9 1500.55 -1258.77
1500.55 -4143.15 -1058.3
-1258.77 -1058.3 -5741.04

-12685.4 -1273.93 915.296
-1273.93 -8346.45 -1779.7
915.296 -1779.7 -10166.8

-9495.5 933.849 677.72
933.849 -4860.14 17.3425
677.72 17.3425 -5195.56

-9868.52 -264.344 983.486
-264.344 -2426.02 176.395
983.486 176.395 -324.191

-12310.1 1290.21 -956.961
1290.21 -7634.7 -1404.84
-956.961 -1404.84 -9562.87

-14604.2 271.38 604.585
271.38 -13370.6 309.002
604.585 309.002 -12073.6

-8336.64 388.172 458.14
388.172 -554.638 651.293
458.14 651.293 -450.126

-6303.27 1444.78 -1776.25
1444.78 -215.181 -772.486
-1776.25 -772.486 827.353

-9068.07 1770.75 1577.11
1770.75 -3068.87 1156.79
1577.11 1156.79 -4355.07

-8874.86 -193.133 -2133.03
-193.133 -6632.68 -9.16346
-2133.03 -9.16346 -4292.52

-10394.8 133.731 -1986.4
133.731 -8500.17 -348.268
-1986.4 -348.268 -4844.81

-11338.5 233.901 1632.62
233.901 -9338 309.434
1632.62 309.434 -5649.37

-8098.35 -164.135 134.122
-164.135 853.831 -540.852
134.122 -540.852 1481.19

-9914.13 -251.21 -1045.73
-251.21 -2640.54 -266.927
-1045.73 -266.927 -296.141

-8850.03 -201.805 435.424
-201.805 -83.9493 68.8329
435.424 68.8329 -982.1

-12717.5 1505.8 -350.542
1505.8 -9440.8 -506.481
-350.542 -506.481 -11581.4

-9899.66 2245.5 -508.834
2245.5 -4685.84 -430.271
-508.834 -430.271 -7685.01

-10753.6 -68.1225 128.294
-68.1225 -3371.15 2.77374
128.294 2.77374 -3850.9

-10493 -2155.95 -573.25
-2155.95 -5191.93 490.932
-573.25 490.932 -8484.8

-8451.11 738.351 664.372
738.351 -1685.37 338.31
664.372 338.31 -215.18

-8049.24 583.977 1097.12
583.977 -2641.1 171.93
1097.12 171.93 612.574

-9407.37 -733.661 -155.096
-733.661 -977.209 424.693
-155.096 424.693 -3671.82

-9865.33 -339.137 414.346
-339.137 -3133.59 739.363
414.346 739.363 -2332.12

-9220.76 -645.837 318.375
-645.837 -2217.8 -282.668
318.375 -282.668 -792.182

-9918.54 2157.62 731.683
2157.62 -4972.33 582.172
731.683 582.172 -7769.79

-9876.26 1973.18 856.96
1973.18 -6023.68 660.287
856.96 660.287 -7961.1

-8814.71 391.015 12.2041
391.015 -541.82 -24.3674
12.2041 -24.3674 -453.016

-7621.94 735.968 -1128.1
735.968 -2159.27 -148.326
-1128.1 -148.326 743.268

-7137.14 1230.75 1679.07
1230.75 -1088.63 654.66
1679.07 654.66 97.127

-12547.2 1233.5 1001.59
1233.5 -8194.13 1485.77
1001.59 1485.77 -9805.52

-9560.75 -986.069 705.054
-986.069 -2544.3 -757.575
705.054 -757.575 -3163.67

-9854.5 278.334 -1206.24
278.334 -2805.62 346.697
-1206.24 346.697 133.488

-9478.09 -9.87037 -270.472
-9.87037 -3799.87 -1548.84
-270.472 -1548.84 -2104.18

-11838.7 -1201.1 -824.309
-1201.1 -6371.8 680.635
-824.309 680.635 -8416.61

-14663 358.654 328.323
358.654 -10616.2 118.591
328.323 118.591 -10428.7

-9754.89 -498.438 -736.122
-498.438 -2859.06 455.203
-736.122 455.203 -3112.13

-9196.9 359.441 701.396
359.441 -2516.42 172.403
701.396 172.403 -525.936

-7573.53 -623.573 260.187
-623.573 1093.37 245.211
260.187 245.211 742.967

-11174.4 -78.0162 -1.53708