# vtk DataFile Version 3.0
vtk output at time 0.7
ASCII
DATASET UNSTRUCTURED_GRID
POINTS 527 float
0 0 0 0 0 0.05 0 0 0.1 
0 0 0.15 0 0 0.2 0 0.05 0 
0 0.05 0.05 0 0.05 0.1 0 0.05 0.15 
0 0.05 0.2 0 0.1 0 0 0.1 0.05 
0 0.1 0.1 0 0.1 0.15 0 0.1 0.2 
0 0.15 0 0 0.15 0.05 0 0.15 0.1 
0 0.15 0.15 0 0.15 0.2 0 0.2 0 
0 0.2 0.05 0 0.2 0.1 0 0.2 0.15 
0 0.2 0.2 0.0387663 -0.00728191 -0.00726561 0.0418581 -0.00691275 0.0463471 
0.0427944 -0.00726435 0.0999446 0.0420856 -0.00730396 0.153609 0.0385119 -0.00753486 0.207347 
0.0417533 0.0466826 -0.00729843 0.041955 0.0464141 0.207322 0.0427357 0.100297 -0.00712897 
0.0423096 0.0998521 0.207151 0.0431331 0.154216 -0.00705098 0.0429249 0.15377 0.207434 
0.0386935 0.207794 -0.00688061 0.0418747 0.20706 0.0466094 0.0430322 0.207141 0.100247 
0.0422672 0.207203 0.153907 0.0386237 0.207508 0.207418 0.0824601 -0.00897512 -0.0095557 
0.0831378 -0.0102008 0.0445123 0.0832179 -0.0101111 0.0997634 0.0818709 -0.0106456 0.15497 
0.0822838 -0.00954874 0.209558 0.0822447 0.0447709 -0.0102482 0.0823485 0.0445644 0.210636 
0.082995 0.10012 -0.0103859 0.0834374 0.0999539 0.210664 0.0825198 0.155817 -0.0109066 
0.0829211 0.155105 0.211123 0.0826048 0.210132 -0.00925091 0.0827575 0.210845 0.0451614 
0.0838494 0.210263 0.100372 0.0820677 0.210196 0.155533 0.0826949 0.20924 0.210172 
0.126615 -0.00820846 -0.00771012 0.123456 -0.00797982 0.046252 0.12199 -0.00761378 0.100133 
0.123044 -0.00768048 0.153436 0.126341 -0.00867094 0.207186 0.123037 0.0463362 -0.00859363 
0.123046 0.0457036 0.208574 0.121579 0.100247 -0.00804932 0.122346 0.0995696 0.208128 
0.122115 0.154 -0.00778417 0.122891 0.153162 0.208098 0.126453 0.207667 -0.00720063 
0.123959 0.207729 0.0467428 0.122931 0.207677 0.100335 0.1235 0.207705 0.153688 
0.126544 0.207278 0.207606 0.165 0 0 0.165 0 0.05 
0.165 0 0.1 0.165 0 0.15 0.165 0 0.2 
0.165 0.05 0 0.165 0.05 0.05 0.165 0.05 0.1 
0.165 0.05 0.15 0.165 0.05 0.2 0.165 0.1 0 
0.165 0.1 0.05 0.165 0.1 0.1 0.165 0.1 0.15 
0.165 0.1 0.2 0.165 0.15 0 0.165 0.15 0.05 
0.165 0.15 0.1 0.165 0.15 0.15 0.165 0.15 0.2 
0.165 0.2 0 0.165 0.2 0.05 0.165 0.2 0.1 
0.165 0.2 0.15 0.165 0.2 0.2 0 0.025 0 
0.0186272 -0.00426476 -0.00639043 0.0218395 -0.00566501 0.0212879 0 0 0.025 
0 0.025 0.025 0.0222893 -0.00566801 0.0477102 0 0.025 0.05 
0 0.025 0.075 0 0 0.075 0 0.025 0.1 
0.02214 -0.00589323 0.0738976 0.0224031 -0.00539826 0.100106 0.0222625 -0.00568135 0.126311 
0 0 0.125 0.0223604 -0.00552652 0.152342 0 0.025 0.175 
0 0.025 0.15 0 0 0.175 0 0.025 0.125 
0.0218894 -0.00570874 0.178677 0 0.025 0.2 0.0184794 -0.00435275 0.206422 
0.0224784 0.0211717 0.0215969 0 0.05 0.025 0.0200437 0.0220271 -0.00548797 
0.0212497 0.0480255 -0.00481113 0.0225021 0.0749042 -0.00558194 0 0.075 0.025 
0 0.075 0 0.0225302 0.0212892 0.0479526 0 0.05 0.075 
0 0.075 0.05 0.0445593 0.0734009 0.0190736 0.0230266 0.0745554 0.0211523 
0.0429689 0.0465495 0.0195675 0.0220308 0.0479593 0.0214531 0.0438043 0.0195645 0.0731781 
0.0429798 0.0199159 0.0463491 0 0.075 0.075 0.0453321 0.0732937 0.0456634 
0.0438073 0.0195049 0.0998264 0.022848 0.0210614 0.0740483 0.0230144 0.0212839 0.126207 
0.0449336 0.0188276 0.126976 0.0228783 0.0210529 0.100113 0 0.05 0.125 
0 0.075 0.125 0 0.075 0.1 0 0.05 0.175 
0.0227564 0.0213368 0.152251 0.0228347 0.0741853 0.178942 0.0222846 0.0478089 0.178594 
0.0439422 0.0730889 0.180651 0 0.075 0.15 0.0432439 0.0463002 0.18042 
0.0443593 0.0191699 0.153828 0.0225225 0.0211237 0.1785 0.0223774 0.0745744 0.205763 
0.0214505 0.0478693 0.204899 0.0200567 0.0219438 0.20556 0 0.075 0.175 
0 0.075 0.2 0 0.125 0 0.0224915 0.100729 -0.00562285 
0 0.1 0.025 0.0453044 0.100349 0.0188379 0 0.125 0.025 
0 0.125 0.05 0.023275 0.126457 0.0214135 0.0230991 0.100541 0.0213639 
0 0.1 0.075 0.0452484 0.127165 0.018975 0 0.125 0.075 
0 0.1 0.125 0.0449235 0.154159 0.127098 0.0445858 0.127019 0.154155 
0.0441692 0.100017 0.154546 0.0445703 0.154325 0.100089 0.0452291 0.127231 0.0458476 
0.0450459 0.100316 0.0456214 0 0.125 0.1 0.0441395 0.0457526 0.0998915 
0.0449238 0.0456453 0.126996 0.0827468 0.100105 0.100062 0.0451334 0.154127 0.154126 
0.0443234 0.126919 0.180752 0 0.125 0.175 0 0.125 0.15 
0.023111 0.126248 0.178897 0.0229154 0.100303 0.178885 0 0.1 0.175 
0 0.125 0.125 0.0439849 0.0999159 0.180755 0.0450117 0.0458123 0.15405 
0.0222998 0.100447 0.205965 0 0.125 0.2 0 0.15 0.025 
0.0224594 0.152467 -0.00467797 0.02046 0.177878 -0.00515685 0.0225639 0.178533 0.0217024 
0.0224783 0.12659 -0.00520894 0 0.175 0.025 0 0.175 0 
0.0229615 0.152449 0.0217431 0.0225347 0.178652 0.048082 0.0446104 0.15408 0.019553 
0.0435783 0.180503 0.0466092 0 0.175 0.05 0 0.15 0.075 
0.0441522 0.180567 0.0734334 0.0229175 0.178855 0.0741462 0.0442615 0.180485 0.100122 
0.0229708 0.178793 0.100223 0 0.175 0.1 0.0230411 0.178705 0.126312 
0 0.175 0.075 0.0450132 0.181052 0.12716 0 0.15 0.125 
0 0.175 0.125 0.0451933 0.154092 0.0460211 0 0.15 0.175 
0.0228916 0.152246 0.178634 0.022784 0.17851 0.152323 0.044265 0.153672 0.180681 
0 0.175 0.15 0.0446783 0.180861 0.153966 0.0226259 0.178422 0.17859 
0.0223435 0.152228 0.205137 0.0203376 0.177686 0.205473 0 0.175 0.175 
0.0222792 0.12638 0.205634 0 0.175 0.2 0.0186977 0.204132 -0.00614645 
0.0219235 0.205499 0.021524 0 0.2 0.025 0.0223239 0.20561 0.0478161 
0 0.2 0.075 0.0225173 0.20523 0.100245 0.0223432 0.20554 0.126419 
0.0221949 0.205735 0.0740618 0 0.2 0.125 0.0224483 0.205339 0.152529 
0 0.2 0.175 0.0220422 0.205315 0.178737 0.0186069 0.203956 0.206416 
0.0405964 -0.00719559 0.0192849 0.0605024 -0.00833519 -0.00828277 0.0614782 0.0183687 -0.00857005 
0.0409102 0.0197031 -0.0076347 0.0615725 -0.00831904 0.0183373 0.0626054 0.0184649 0.0181574 
0.0426454 0.0198343 0.01925 0.06275 -0.00847592 0.0724483 0.0626423 -0.00846735 0.0452114 
0.0422093 -0.00720537 0.0730404 0.063261 -0.00868182 0.0998866 0.0422749 -0.00732472 0.126863 
0.0626604 0.0180497 0.18197 0.0613324 -0.0088376 0.18176 0.0622248 -0.00909743 0.154506 
0.0631469 -0.00931522 0.127369 0.0427275 0.0195272 0.180767 0.0404792 -0.00743557 0.18075 
0.061426 0.018008 0.208641 0.0602486 -0.00877276 0.208375 0.0409264 0.0194388 0.20772 
0.0620395 0.0455754 -0.00883248 0.0423114 0.0734288 -0.00731719 0.042265 0.0731175 0.207349 
0.0621727 0.0452989 0.208904 0.06298 0.0726281 -0.0090575 0.0633829 0.100135 -0.00908803 
0.0429671 0.127267 -0.00725658 0.0633982 0.127578 -0.00935226 0.0426101 0.126816 0.207448 
0.063066 0.0997949 0.208863 0.0628139 0.072441 0.208922 0.0629917 0.127071 0.209078 
0.0416218 0.181049 -0.00741856 0.0433888 0.180723 0.0195823 0.0630127 0.155341 -0.00885197 
0.04326 0.180437 0.180835 0.0413986 0.180629 0.207874 0.0629584 0.154687 0.209114 
0.040558 0.207461 0.0196686 0.0605654 0.209439 -0.00775806 0.0619786 0.182736 -0.00830857 
0.0630019 0.208658 0.0729696 0.0423401 0.207158 0.0733774 0.0617028 0.20925 0.0187854 
0.0633704 0.182406 0.0183945 0.0626305 0.209033 0.0457269 0.0636693 0.20871 0.100297 
0.0425372 0.207155 0.127124 0.0406955 0.207301 0.180887 0.0632725 0.181897 0.182196 
0.0625686 0.208985 0.154951 0.061777 0.208756 0.182099 0.0635104 0.20911 0.127644 
0.0605265 0.208654 0.208604 0.0618247 0.18194 0.20886 0.082454 0.017573 -0.00972141 
0.082851 -0.00941157 0.0172037 0.104623 -0.00841698 -0.00873297 0.103954 -0.00852817 0.0179082 
0.082935 0.017256 0.017099 0.10321 -0.00872184 0.0450096 0.0833592 -0.0102353 0.0720361 
0.102114 0.0453603 0.0177552 0.0829137 0.0446827 0.0171733 0.0829047 0.0447155 0.155132 
0.120826 0.0460484 0.127083 0.120828 0.0458518 0.100081 0.101765 0.0454225 0.0450455 
0.0830538 0.0447288 0.0449187 0.0829597 -0.0107536 0.127298 0.102782 -0.00890446 0.0723935 
0.102389 -0.00933991 0.127133 0.101268 0.0451269 0.155174 0.102082 -0.00886792 0.0999236 
0.0822152 0.0170185 0.182992 0.0822294 -0.00980568 0.18257 0.0827507 0.0447706 0.183068 
0.102068 -0.00894027 0.154576 0.101593 0.0448401 0.18238 0.082296 0.017097 0.209995 
0.104333 -0.00911705 0.208194 0.103314 -0.00887808 0.181557 0.082637 0.0723644 -0.0104122 
0.103723 0.018208 -0.00885969 0.103106 0.0183133 0.0178158 0.103132 0.0452722 -0.00907081 
0.102054 0.0724859 -0.00929143 0.103369 0.0175762 0.208615 0.102353 0.01782 0.182041 
0.0830903 0.0722528 0.210751 0.102381 0.072081 0.209644 0.103108 0.0447045 0.209135 
0.120662 0.100005 0.0453973 0.10166 0.0999527 -0.00938617 0.0828234 0.128031 -0.0105946 
0.120815 0.126992 0.0456691 0.101628 0.155308 0.0455201 0.0833412 0.15559 0.045208 
0.120337 0.099439 0.181563 0.120488 0.0995944 0.154703 0.119935 0.12665 0.154711 
0.0832332 0.155137 0.183132 0.0830119 0.15496 0.155089 0.10199 0.155001 0.182382 
0.101288 0.15485 0.154839 0.120581 0.126398 0.181463 0.102248 0.0995021 0.209848 
0.0834616 0.127667 0.210889 0.0826647 0.183412 -0.00994035 0.0829073 0.183571 0.01728 
0.102399 0.182552 0.018216 0.103374 0.182744 -0.00859014 0.101892 0.155233 -0.00897154 
0.121416 0.154005 0.0461263 0.101918 0.182523 0.0453872 0.0832709 0.18333 0.0449062 
0.101877 0.127731 -0.00898916 0.0825284 0.182505 0.183387 0.082665 0.182591 0.210614 
0.102394 0.18206 0.182343 0.10358 0.181878 0.209035 0.121404 0.153221 0.181379 
0.102798 0.154378 0.209594 0.102566 0.126794 0.209898 0.0827618 0.210439 0.0176733 
0.103961 0.209349 0.0185311 0.104758 0.209532 -0.00804054 0.0835828 0.210652 0.0726844 
0.102965 0.209478 0.0454506 0.0832164 0.210447 0.127924 0.122102 0.18098 0.100229 
0.102871 0.209519 0.100386 0.121865 0.154378 0.100141 0.102534 0.209164 0.127925 
0.102965 0.209619 0.0728044 0.0825213 0.209593 0.183066 0.102021 0.208653 0.155248 
0.103567 0.208608 0.182065 0.10482 0.208661 0.208644 0.124803 -0.00815599 0.0189295 
0.124242 0.0190161 -0.00849521 0.146832 -0.00435764 -0.00716943 0.145011 0.0218311 -0.00652674 
0.122888 0.019065 0.01868 0.142324 0.0476518 0.0470766 0.142339 0.0206497 0.0737123 
0.142176 0.0473662 0.0736618 0.122083 0.0460376 0.0189109 0.143359 -0.00568087 0.020654 
0.142796 0.0211243 0.0204149 0.122644 -0.00781107 0.0731704 0.142768 -0.0055384 0.0472198 
[...]
POINT_DATA 527
VECTORS displacement float
0 0 0
0 0 0
0 0 0
0 0 0
0 0 0
0 0 0
0 0 0
0 0 0
0 0 0
0 0 0
0 0 0
0 0 0
0 0 0
0 0 0
0 0 0
0 0 0
0 0 0
0 0 0
0 0 0
0 0 0
0 0 0
0 0 0
0 0 0
0 0 0
0 0 0
-0.0112337 -0.00728191 -0.00726561
-0.00814186 -0.00691275 -0.00365289
-0.00720556 -0.00726435 -5.54198e-05
-0.00791444 -0.00730396 0.00360935
-0.0114881 -0.00753486 0.00734651
-0.00824672 -0.0033174 -0.00729843
-0.00804496 -0.00358595 0.00732172
-0.00726429 0.000296773 -0.00712897
-0.00769043 -0.000147874 0.00715149
-0.00686689 0.00421562 -0.00705098
-0.00707508 0.00376986 0.00743449
-0.0113065 0.00779421 -0.00688061
-0.00812532 0.00706027 -0.00339057
-0.00696777 0.0071409 0.000247036
-0.00773281 0.00720284 0.0039073
-0.0113763 0.00750774 0.00741836
-0.0175399 -0.00897512 -0.0095557
-0.0168622 -0.0102008 -0.00548775
-0.0167821 -0.0101111 -0.000236606
-0.0181291 -0.0106456 0.00496961
-0.0177162 -0.00954874 0.00955836
-0.0177553 -0.00522912 -0.0102482
-0.0176515 -0.00543556 0.0106362
-0.017005 0.00012016 -0.0103859
-0.0165626 -4.6062e-05 0.0106637
-0.0174802 0.00581731 -0.0109066
-0.0170789 0.00510463 0.0111229
-0.0173952 0.0101321 -0.00925091
-0.0172425 0.010845 -0.00483856
-0.0161506 0.0102632 0.000371734
-0.0179323 0.0101961 0.00553315
-0.0173051 0.00924005 0.0101723
-0.0233846 -0.00820846 -0.00771012
-0.0265439 -0.00797982 -0.00374802
-0.0280099 -0.00761378 0.000132999
-0.0269555 -0.00768048 0.00343569
-0.0236594 -0.00867094 0.00718624
-0.0269627 -0.00366385 -0.00859363
-0.0269538 -0.0042964 0.0085737
-0.0284211 0.000246833 -0.00804932
-0.0276541 -0.000430389 0.00812799
-0.0278854 0.0039995 -0.00778417
-0.0271091 0.00316209 0.00809832
-0.0235465 0.00766656 -0.00720063
-0.0260407 0.007729 -0.00325716
-0.0270686 0.00767724 0.000335467
-0.0264998 0.0077052 0.0036877
-0.0234564 0.00727783 0.00760581
-0.035 0 0
-0.035 0 0
-0.035 0 0
-0.035 0 0
-0.035 0 0
-0.035 0 0
-0.035 0 0
-0.035 0 0
-0.035 0 0
-0.035 0 0
-0.035 0 0
-0.035 0 0
-0.035 0 0
-0.035 0 0
-0.035 0 0
-0.035 0 0
-0.035 0 0
-0.035 0 0
-0.035 0 0
-0.035 0 0
-0.035 0 0
-0.035 0 0
-0.035 0 0
-0.035 0 0
-0.035 0 0
0 0 0
-0.00637281 -0.00426476 -0.00639043
-0.00316047 -0.00566501 -0.00371211
0 0 0
0 0 0
-0.00271073 -0.00566801 -0.00228978
0 0 0
0 0 0
0 0 0
0 0 0
-0.00286002 -0.00589323 -0.0011024
-0.00259694 -0.00539826 0.000105724
-0.00273748 -0.00568135 0.00131105
0 0 0
-0.00263956 -0.00552652 0.00234249
0 0 0
0 0 0
0 0 0
0 0 0
-0.00311063 -0.00570874 0.00367725
0 0 0
-0.00652056 -0.00435275 0.0064218
-0.00252162 -0.00382828 -0.00340307
0 0 0
-0.00495632 -0.0029729 -0.00548797
-0.00375028 -0.00197451 -0.00481113
-0.00249794 -9.58458e-05 -0.00558194
0 0 0
0 0 0
-0.00246976 -0.00371084 -0.00204736
0 0 0
0 0 0
-0.00544072 -0.00159907 -0.00592644
-0.00197338 -0.000444623 -0.0038477
-0.00703111 -0.00345047 -0.00543253
-0.00296922 -0.0020407 -0.00354691
-0.00619566 -0.0054355 -0.00182186
-0.00702018 -0.00508408 -0.00365087
0 0 0
-0.00466793 -0.00170634 -0.00433657
-0.00619266 -0.00549509 -0.000173605
-0.002152 -0.00393859 -0.000951689
-0.00198561 -0.00371606 0.00120655
-0.00506637 -0.00617238 0.00197585
-0.00212166 -0.00394715 0.00011346
0 0 0
0 0 0
0 0 0
0 0 0
-0.00224358 -0.00366324 0.00225133
-0.00216526 -0.000814696 0.00394155
-0.0027154 -0.0021911 0.00359385
-0.00605777 -0.00191107 0.00565102
0 0 0
-0.00675609 -0.00369981 0.00542016
-0.00564073 -0.00583011 0.0038281
-0.00247748 -0.00387631 0.00350038
-0.00262261 -0.000425615 0.00576296
-0.00354954 -0.00213072 0.00489901
-0.00494332 -0.00305622 0.00555976
0 0 0
0 0 0
0 0 0
-0.00250853 0.000728792 -0.00562285
0 0 0
-0.00469561 0.000348797 -0.00616206
0 0 0
0 0 0
-0.00172497 0.00145735 -0.00358645
-0.00190092 0.000541013 -0.00363615
0 0 0
-0.00475163 0.00216451 -0.00602504
0 0 0
0 0 0
-0.00507646 0.00415905 0.00209843
-0.00541424 0.00201881 0.00415513
-0.00583084 1.74724e-05 0.00454553
-0.00542974 0.00432518 8.93874e-05
-0.00477087 0.00223051 -0.00415239
-0.0049541 0.000316292 -0.0043786
0 0 0
-0.00586049 -0.00424742 -0.000108492
-0.00507625 -0.00435469 0.00199597
-0.0172532 0.000104506 6.20383e-05
-0.00486663 0.00412667 0.00412561
-0.00567662 0.0019193 0.0057518
0 0 0
0 0 0
-0.00188904 0.00124754 0.00389705
-0.00208464 0.000303053 0.00388521
0 0 0
0 0 0
-0.00601505 -8.4114e-05 0.00575537
-0.00498833 -0.00418767 0.00404972
-0.0027002 0.000446826 0.00596534
0 0 0
0 0 0
-0.00254059 0.00246681 -0.00467797
-0.00454003 0.00287781 -0.00515685
-0.00243615 0.00353295 -0.00329762
-0.00252165 0.00158993 -0.00520894
0 0 0
0 0 0
-0.00203852 0.00244856 -0.00325692
-0.0024653 0.003652 -0.00191798
-0.00538964 0.00407982 -0.00544697
-0.00642173 0.00550297 -0.00339075
0 0 0
0 0 0
-0.0058478 0.00556741 -0.00156658
-0.00208245 0.0038554 -0.000853839
-0.00573846 0.00548466 0.000122275
-0.00202922 0.00379345 0.000223374
0 0 0
-0.0019589 0.00370499 0.00131196
0 0 0
-0.00498684 0.00605188 0.0021596
0 0 0
0 0 0
-0.00480667 0.00409231 -0.00397894
0 0 0
-0.0021084 0.00224568 0.00363404
-0.00221601 0.00350986 0.00232305
-0.00573497 0.00367242 0.00568067
0 0 0
-0.00532167 0.00586142 0.0039661
-0.0023741 0.003422 0.00358957
-0.00265653 0.00222788 0.00513662
-0.00466241 0.00268552 0.00547309
0 0 0
-0.0027208 0.00137955 0.00563358
0 0 0
-0.00630227 0.0041325 -0.00614645
-0.00307653 0.00549943 -0.00347597
0 0 0
-0.00267613 0.00560984 -0.00218391
0 0 0
-0.00248274 0.0052295 0.000245011
-0.00265678 0.00553999 0.00141914
-0.00280511 0.00573493 -0.000938187
0 0 0
-0.00255168 0.00533929 0.00252864
0 0 0
-0.00295783 0.00531514 0.00373741
-0.00639314 0.00395621 0.00641603
-0.00940355 -0.00719559 -0.00571511
-0.0144976 -0.00833519 -0.00828277
-0.0135218 -0.00663125 -0.00857005
-0.00908977 -0.00529691 -0.0076347
-0.0134275 -0.00831904 -0.00666267
-0.0123946 -0.00653512 -0.00684261
-0.00735455 -0.00516574 -0.00574995
-0.01225 -0.00847592 -0.00255174
-0.0123577 -0.00846735 -0.00478856
-0.00779066 -0.00720537 -0.00195962
-0.011739 -0.00868182 -0.000113358
-0.00772514 -0.00732472 0.0018634
-0.0123396 -0.00695034 0.00696985
-0.0136676 -0.0088376 0.00676014
-0.0127752 -0.00909743 0.00450629
-0.0118531 -0.00931522 0.00236919
-0.00727251 -0.00547279 0.00576653
-0.00952079 -0.00743557 0.00575006
-0.013574 -0.00699195 0.00864141
-0.0147514 -0.00877276 0.00837475
-0.00907361 -0.00556121 0.00771955
-0.0129605 -0.00442458 -0.00883248
-0.00768864 -0.00157116 -0.00731719
-0.00773499 -0.00188251 0.00734857
-0.0128273 -0.00470112 0.00890445
-0.01202 -0.00237188 -0.0090575
-0.0116171 0.000135183 -0.00908803
-0.00703291 0.00226731 -0.00725658
-0.0116018 0.00257836 -0.00935226
-0.00738989 0.00181552 0.00744783
-0.011934 -0.000205082 0.0088632
-0.0121862 -0.00255898 0.00892197
-0.0120083 0.00207067 0.00907781
-0.0083782 0.00604919 -0.00741856
-0.00661117 0.00572301 -0.00541771
-0.0119873 0.00534121 -0.00885197
-0.00674 0.00543679 0.00583517
-0.00860144 0.00562858 0.00787378
-0.0120416 0.00468714 0.00911406
-0.00944205 0.00746107 -0.00533139
-0.0144346 0.0094385 -0.00775806
-0.0130214 0.00773553 -0.00830857
-0.0119981 0.0086583 -0.0020304
-0.00765988 0.00715796 -0.00162261
-0.0132972 0.00924967 -0.00621456
-0.0116296 0.0074056 -0.00660555
-0.0123695 0.00903267 -0.00427312
-0.0113307 0.00870955 0.000296571
-0.00746277 0.00715506 0.00212378
-0.00930454 0.00730101 0.00588676
-0.0117275 0.00689678 0.00719647
-0.0124314 0.0089849 0.00495079
-0.013223 0.0087564 0.00709866
-0.0114896 0.00911032 0.0026437
-0.0144735 0.00865416 0.00860358
-0.0131753 0.00694006 0.00886004
-0.017546 -0.00742702 -0.00972141
-0.017149 -0.00941157 -0.00779634
-0.0203775 -0.00841698 -0.00873297
-0.0210462 -0.00852817 -0.00709179
-0.017065 -0.00774398 -0.00790105
-0.0217895 -0.00872184 -0.00499042
-0.0166408 -0.0102353 -0.00296395
-0.022886 -0.00463972 -0.0072448
-0.0170863 -0.00531727 -0.00782668
-0.0170953 -0.00528453 0.00513215
-0.0291741 -0.00395156 0.00208291
-0.0291717 -0.00414819 8.14161e-05
-0.0232348 -0.00457751 -0.00495448
-0.0169463 -0.00527122 -0.0050813
-0.0170403 -0.0107536 0.00229787
-0.0222177 -0.00890446 -0.0026065
-0.0226114 -0.00933991 0.00213272
-0.0237318 -0.00487309 0.00517439
-0.0229184 -0.00886792 -7.63536e-05
-0.0177848 -0.00798154 0.00799236
-0.0177706 -0.00980568 0.00756966
-0.0172493 -0.0052294 0.00806777
-0.0229315 -0.00894027 0.00457591
-0.0234068 -0.00515986 0.00738022
-0.017704 -0.00790303 0.00999455
-0.0206666 -0.00911705 0.00819436
-0.0216856 -0.00887808 0.00655682
-0.017363 -0.00263563 -0.0104122
-0.0212772 -0.00679198 -0.00885969
-0.0218939 -0.00668665 -0.0071842
-0.0218675 -0.00472776 -0.00907081
-0.0229462 -0.00251413 -0.00929143
-0.0216309 -0.00742377 0.00861474
-0.0226466 -0.00718003 0.00704099
-0.0169097 -0.00274721 0.0107514
-0.0226191 -0.00291902 0.0096445
-0.0218918 -0.00529555 0.00913469
-0.0293385 4.84837e-06 -0.00460272
-0.0233398 -4.73122e-05 -0.00938617
-0.0171766 0.00303088 -0.0105946
-0.029185 0.00199162 -0.00433087
-0.0233722 0.00530793 -0.00447989
-0.0166588 0.00558988 -0.00479197
-0.0296635 -0.000561048 0.00656257
-0.0295119 -0.000405583 0.00470308
-0.0300646 0.00164993 0.0047105
-0.0167668 0.00513695 0.00813241
-0.0169881 0.00496039 0.00508869
-0.0230103 0.00500096 0.00738151
-0.0237117 0.00484976 0.00483863
-0.0294189 0.00139768 0.00646301
-0.0227517 -0.000497895 0.00984801
-0.0165384 0.00266724 0.010889
-0.0173353 0.00841191 -0.00994035
-0.0170927 0.00857095 -0.00771999
-0.022601 0.00755198 -0.00678404
-0.021626 0.00774413 -0.00859014
-0.0231083 0.00523288 -0.00897154
-0.0285836 0.00400479 -0.00387369
-0.0230823 0.00752286 -0.00461278
-0.0167291 0.00833008 -0.00509375
-0.0231231 0.0027311 -0.00898916
-0.0174716 0.00750493 0.00838692
-0.017335 0.00759117 0.0106143
-0.0226064 0.00706004 0.00734337
-0.0214204 0.00687782 0.00903494
-0.0285964 0.00322116 0.00637864
-0.0222023 0.0043783 0.00959359
-0.0224339 0.00179364 0.00989838
-0.0172382 0.0104391 -0.00732672
-0.0210392 0.00934904 -0.00646889
-0.0202425 0.0095325 -0.00804054
-0.0164172 0.010652 -0.00231556
-0.0220348 0.0094775 -0.00454944
-0.0167836 0.0104469 0.00292365
-0.027898 0.00597984 0.000228554
-0.0221291 0.00951883 0.00038638
-0.0281351 0.00437828 0.000141006
-0.0224664 0.00916397 0.00292522
-0.0220352 0.00961926 -0.00219562
-0.0174787 0.00959328 0.00806568
-0.0229791 0.00865285 0.00524814
-0.021433 0.00860826 0.00706512
-0.0201798 0.00866141 0.00864412
-0.0251973 -0.00815599 -0.00607055
-0.0257585 -0.00598394 -0.00849521
-0.0281677 -0.00435764 -0.00716943
-0.0299893 -0.00316895 -0.00652674
-0.0271117 -0.00593502 -0.00631996
-0.0326763 -0.00234824 -0.00292342
-0.0326607 -0.00435032 -0.00128771
-0.0328239 -0.00263379 -0.00133821
-0.0279167 -0.00396236 -0.00608913
-0.0316405 -0.00568087 -0.00434601
-0.0322039 -0.00387575 -0.0045851
-0.0273559 -0.00781107 -0.00182961
-0.0322317 -0.0055384 -0.00278025
-0.0324844 -0.00390518 -0.00294855
-0.0320915 -0.00609725 -0.00131633
-0.0327677 -0.00452848 -4.25462e-05
-0.0275558 -0.00778641 0.00200688
-0.0331904 -0.00353815 0.00115693
-0.0330418 -0.0031865 4.24483e-05
-0.028544 -0.00395268 -0.00405442
-0.0322617 -0.00573578 3.80577e-05
-0.0327156 -0.00452641 0.00115555
-0.032857 -0.0024102 0.00267326
-0.0254786 -0.00824111 0.00562008
-0.0323582 -0.00546535 0.00252038
-0.0326283 -0.00385487 0.00267426
-0.0275333 -0.00623826 0.00616511
-0.0323221 -0.00400857 0.00422198
-0.0317626 -0.00581492 0.00395736
-0.0282697 -0.00447456 0.0061353
-0.0320528 -0.00634104 0.00123105
-0.026018 -0.00658385 0.00825615
-0.0301305 -0.00347273 0.00612501
-0.0283472 -0.00462506 0.00673158
-0.0276783 -0.00160769 -0.00829887
-0.0319215 -0.00234748 -0.00599595
-0.0326634 -0.00110484 -0.00446995
-0.0325533 -0.00255294 -0.00447769
-0.0319461 -0.00270503 0.00561758
-0.0327941 -0.00144835 0.00412579
-0.0326885 -0.00279824 0.00411867
-0.027356 -0.00227672 0.00837811
-0.0330559 0.000147048 -0.0032706
-0.0332028 0.00122936 -0.00375143
-0.0323601 -0.00118591 -0.00618528
-0.0330327 -0.00011123 -0.00462752
-0.0325579 -0.000177934 -0.00624412
-0.0281199 0.00230015 -0.00790512
-0.0328705 0.00114147 -0.0049084
-0.0325577 0.000739118 -0.00619603
-0.0324643 -1.9427e-05 0.00598028
-0.0329964 0.000533934 0.00419383
-0.0328939 -0.000339185 0.00405206
-0.0323267 -0.00157044 0.00584675
-0.0324139 -0.000752879 0.00613807
-0.0273016 0.00138748 0.00818664
-0.0263207 0.00586769 -0.00767709
-0.0275587 0.00582259 -0.00583384
-0.0325964 0.00259322 -0.00313612
-0.0280899 0.00593799 -0.00380099
-0.0317222 0.00240135 -0.00562385
-0.0323637 0.00256275 -0.00448742
-0.03157 0.00162231 0.00554224
-0.0260119 0.00531591 0.00804539
-0.0277236 0.00536003 0.00616811
-0.0324953 0.00178047 0.00425073
-0.0250651 0.00755745 -0.00550221
-0.02835 0.00457142 -0.00702704
-0.0300864 0.00335437 -0.00632696
-0.0314444 0.00596444 -0.00426313
-0.0320718 0.00406892 -0.00436635
-0.0319552 0.00607048 -0.0026067
-0.0325054 0.00410528 -0.0016334
-0.0319932 0.00603189 -0.00113745
-0.0268339 0.00774056 -0.00149897
-0.0323493 0.00402875 -0.00298592
-0.0270706 0.0077238 0.00199602
-0.0318364 0.00366758 0.00014017
-0.0319947 0.00530233 0.000256083
-0.0324524 0.00340609 0.00404295
-0.0322648 0.00543601 0.00273883
-0.032486 0.00322398 0.00297198
-0.0326984 0.00304996 0.0018413
-0.0251843 0.0072461 0.00593966
-0.0317551 0.0053178 0.00419027
-0.0323825 0.00513597 0.00157712
-0.0300932 0.00260867 0.00606132
-0.0284419 0.00390616 0.00694242
-0.035 0 0
-0.035 0 0
-0.035 0 0
-0.035 0 0
-0.035 0 0
-0.035 0 0
-0.035 0 0
-0.035 0 0
-0.035 0 0
-0.035 0 0
-0.035 0 0
-0.035 0 0
-0.035 0 0
-0.035 0 0
-0.035 0 0
-0.035 0 0
-0.035 0 0
-0.035 0 0
-0.035 0 0
-0.035 0 0
-0.035 0 0
-0.035 0 0
-0.035 0 0
-0.035 0 0
-0.035 0 0
-0.035 0 0
-0.035 0 0
-0.035 0 0
-0.035 0 0
-0.035 0 0
-0.035 0 0
-0.035 0 0
-0.035 0 0
-0.035 0 0
-0.035 0 0
-0.035 0 0
-0.035 0 0
-0.035 0 0
-0.035 0 0
-0.035 0 0
-0.035 0 0
-0.035 0 0
-0.035 0 0
-0.035 0 0
-0.035 0 0
-0.035 0 0
-0.035 0 0
-0.035 0 0
-0.035 0 0
-0.035 0 0
-0.035 0 0
-0.035 0 0
-0.035 0 0
-0.035 0 0
-0.035 0 0
-0.035 0 0

CELL_DATA 236
TENSORS stress float
-8763.17 -95.8149 -184.229
-95.8149 -1900.81 316.85
-184.229 316.85 268.289

-8266.08 -5.16005 127.414
-5.16005 -1292.29 489.791
127.414 489.791 -637.584

-10423.8 -1685.37 1436.21
-1685.37 -6335.03 -1126.89
1436.21 -1126.89 -6986.58

-6634.39 84.8181 -774.446
84.8181 -197.551 442.328
-774.446 442.328 302.327

-8991.93 -1619.47 -1255.01
-1619.47 -4099.06 827.836
-1255.01 827.836 -5269.88

-11274.4 673.633 -1072.55
673.633 -8636.52 -376.67
-1072.55 -376.67 -7923.32

-12835.8 122.199 -176.345
122.199 -8536.83 -147.068
-176.345 -147.068 -8800.66

-7309.02 -197.707 137.714
-197.707 -421.988 -80.9144
137.714 -80.9144 -431.18

-8995.8 450.828 489.481
450.828 -2063.09 -17.5762
489.481 -17.5762 -2416.73

-16605.6 -287.552 -166.176
-287.552 -13574.6 -29.3234
-166.176 -29.3234 -13628

-6755.97 -406.306 173.659
-406.306 715.977 188.361
173.659 188.361 325.427

-8029.14 -324.872 -2030.68
-324.872 -5837.12 -76.7962
-2030.68 -76.7962 -3897.88

-6650.6 448.875 -1692.25
448.875 -1598.73 -328.847
-1692.25 -328.847 393.217

-8831.56 -159.835 309.778
-159.835 -1951.72 -88.1766
309.778 -88.1766 75.7496

-7076.61 336.279 508.485
336.279 1225.2 -163.045
508.485 -163.045 -406.179

-6869.17 -480.056 -348.65
-480.056 2116.73 -124.95
-348.65 -124.95 1608.3

-6843.97 170.561 184.161
170.561 431.694 -157.47
184.161 -157.47 268.894

-7587.49 977.985 224.046
977.985 -805.344 241.668
224.046 241.668 -2530.18

-9506.88 371.097 278.379
371.097 -1553.29 223.752
278.379 223.752 -1255.55

-7990.46 -1113.51 -1045.85
-1113.51 -1680.31 295.965
-1045.85 295.965 -2265.53

-7016.73 222.593 454.501
222.593 1701.39 46.6675
454.501 46.6675 941.166

-11431 537.732 -1035.62
537.732 -9654.62 -183.014
-1035.62 -183.014 -8898

-10292.2 273.736 -1820.4
273.736 -8236.16 -356.43
-1820.4 -356.43 -5572.71

-7627.18 -100.954 11.4065
-100.954 -2551.64 -239.605
11.4065 -239.605 -678.586

-7900.13 -127.69 79.5432
-127.69 -168.059 -316.831
79.5432 -316.831 -82.6045

-10377.5 -1652.27 -1235.94
-1652.27 -6361.35 1095.67
-1235.94 1095.67 -7425.95

-7121.31 -27.8222 -177.527
-27.8222 920.017 389.147
-177.527 389.147 1435.48

-9828.37 475.928 -359.511
475.928 -4928.04 499.787
-359.511 499.787 -5253.08

-7621.77 -112.396 -227.511
-112.396 -872.614 -480.425
-227.511 -480.425 -1243.99

-9062.17 -1576.33 -1634.39
-1576.33 -4918.26 681.936
-1634.39 681.936 -5989.32

-8677.97 -284.836 -294.682
-284.836 -1791.92 -236.378
-294.682 -236.378 -2595.73

-6970.6 -365.168 -296.2
-365.168 1141.59 319.351
-296.2 319.351 900.549

-8638.96 426.497 -1887.37
426.497 -6391.05 -195.961
-1887.37 -195.961 -4141.94

-9194.43 -326.964 -235.248
-326.964 -2553 -414.733
-235.248 -414.733 -2321.27

-7800.21 -1842.15 1417.5
-1842.15 -3246.43 -829.82
1417.5 -829.82 -4325.45

-6651.8 493.623 -286.534
493.623 2382.9 243.381
-286.534 243.381 1630.82

-8735.88 -88.7783 -202.164
-88.7783 -957.974 -70.8604
-202.164 -70.8604 -1047.81

-6316.03 519.435 514.49
519.435 -462.378 -328.998
514.49 -328.998 1495.09

-7749.69 65.0006 170.416
65.0006 -1596.97 -109.243
170.416 -109.243 -302.164

-6637.01 258.793 89.9765
258.793 518.365 -393.523
89.9765 -393.523 429.663

-7285.77 -19.6886 -451.543
-19.6886 553.28 -287.144
-451.543 -287.144 538.506

-8265.73 -143.198 -717.705
-143.198 -1811.17 -557.157
-717.705 -557.157 -1720.75

-7794.66 -129.752 9.34217
-129.752 -2651.79 107.902
9.34217 107.902 -767.622

-6285.61 233.045 -966.496
233.045 506.346 203.818
-966.496 203.818 581.932

-8635.85 1594.74 -1266.26
1594.74 -3595.16 -659.093
-1266.26 -659.093 -4703.48

-10660 -1599.15 1188.03
-1599.15 -6720.86 -1116.32
1188.03 -1116.32 -7823.67

-8436.72 859.381 613.867
859.381 -4738.12 -45.7454
613.867 -45.7454 -4964.07

-8804.71 169.02 289.333
169.02 -1809.65 -6.50587
289.333 -6.50587 -255.816

-10311.4 1569.71 -1173.16
1569.71 -6164.44 -878.719
-1173.16 -878.719 -7425.03

-12396.2 429.556 952.504
429.556 -10735.6 184.049
952.504 184.049 -9781.98

-7383.65 377.721 449.521
377.721 -617.462 414.495
449.521 414.495 -515.829

-5312.93 1258.15 -1595.4
1258.15 -221.759 -383.185
-1595.4 -383.185 503.487

-7476.14 1734.99 1511.66
1734.99 -2851.07 698.145
1511.66 698.145 -3728.35

-7634.51 -192.351 -1940.06
-192.351 -5519.67 16.3446
-1940.06 16.3446 -3919.78

-8483.79 113.864 -2063.89
113.864 -6418.42 -198.489
-2063.89 -198.489 -3968.89

-9396.07 285.359 1856.45
285.359 -7183.45 175.045
1856.45 175.045 -4681.69

-6781 -240.079 -41.9701
-240.079 731.147 -389.279
-41.9701 -389.279 1034.34

-8864.41 162.899 -294.815
162.899 -1978.75 -80.1155
-294.815 -80.1155 -219.568

-7714.87 -227.724 95.6577
-227.724 -300.333 24.8539
95.6577 24.8539 -729.111

-10952.2 1552.01 -402.411
1552.01 -7825.52 -313.049
-402.411 -313.049 -9327.14

-8335.07 2213.63 -484.045
2213.63 -3992.31 -253.093
-484.045 -253.093 -5988.96

-8875.82 -101.699 -156.17
-101.699 -2743.19 7.2336
-156.17 7.2336 -2952.76

-8816.97 -2173.4 -532.531
-2173.4 -4374.92 278.543
-532.531 278.543 -6561.23

-7821.47 687.189 542.262
687.189 -1775.59 303.351
542.262 303.351 -877.866

-6838.69 535.651 1129.19
535.651 -2210.67 89.5719
1129.19 89.5719 8.0058

-8030.95 -871.213 -129.855
-871.213 -1171.97 309.976
-129.855 309.976 -3053

-8410.19 -409.351 684.911
-409.351 -2534.55 588.733
684.911 588.733 -1915.34

-7613.08 -176.364 344.74
-176.364 -1929.67 -238.763
344.74 -238.763 -1066.24

-8270.39 2141.67 709.891
2141.67 -4147.5 347.473
709.891 347.473 -6011.63

-8215.48 1873.36 832.074
1873.36 -4781.38 406.194
832.074 406.194 -6135.42

-7674.74 149.976 -16.7386
149.976 -495.116 -51.1255
-16.7386 -51.1255 -695.975

-6354.91 649.387 -1161.86
649.387 -1685.37 -62.5334
-1161.86 -62.5334 216.179

-5999.21 1124.67 1555.03
1124.67 -826.513 330.409
1555.03 330.409 -59.0771

-10482.3 1510.6 1253.35
1510.6 -6573.59 932.59
1253.35 932.59 -7620.9

-8140.55 -1031.65 941.969
-1031.65 -2072.86 -435.351
941.969 -435.351 -2498.71

-8897.28 -165.456 -360.264
-165.456 -2050.46 133.794
-360.264 133.794 40.0188

-9061.94 -186.482 -203.483
-186.482 -3286.48 -1127.69
-203.483 -1127.69 -2278.99

-10103.1 -1316.56 -880.858
-1316.56 -5645.8 405.175
-880.858 405.175 -7079.8

-13582.6 407.621 335.578