# vtk DataFile Version 3.0
vtk output at time 0.9
ASCII
DATASET UNSTRUCTURED_GRID
POINTS 527 float
0 0 0 0 0 0.05 0 0 0.1 
0 0 0.15 0 0 0.2 0 0.05 0 
0 0.05 0.05 0 0.05 0.1 0 0.05 0.15 
0 0.05 0.2 0 0.1 0 0 0.1 0.05 
0 0.1 0.1 0 0.1 0.15 0 0.1 0.2 
0 0.15 0 0 0.15 0.05 0 0.15 0.1 
0 0.15 0.15 0 0.15 0.2 0 0.2 0 
0 0.2 0.05 0 0.2 0.1 0 0.2 0.15 
0 0.2 0.2 0.0351384 -0.00878033 -0.00889176 0.0396699 -0.00847411 0.0454655 
0.0407787 -0.00883208 0.0999037 0.0399095 -0.00890276 0.154358 0.0347968 -0.0091778 0.208859 
0.03932 0.0459925 -0.0089024 0.0395829 0.045555 0.208907 0.0408001 0.100428 -0.00860816 
0.0402728 0.0998429 0.208714 0.041262 0.155154 -0.00853333 0.0409565 0.154592 0.209024 
0.0351746 0.209363 -0.0083118 0.039706 0.208615 0.0458868 0.0411485 0.208632 0.100333 
0.0401795 0.208695 0.154747 0.0350725 0.209023 0.20894 0.0774419 -0.0110226 -0.0118671 
0.0783363 -0.0126007 0.0431376 0.0784559 -0.0124597 0.0996959 0.0768162 -0.0132231 0.156218 
0.0771861 -0.0118313 0.211823 0.0771434 0.0435306 -0.0126971 0.0772632 0.0431781 0.213124 
0.0782004 0.100197 -0.0127342 0.0787079 0.0998906 0.213135 0.0777662 0.157251 -0.0134485 
0.0781706 0.156359 0.213734 0.0776527 0.212526 -0.0113969 0.0779302 0.213347 0.0440431 
0.079413 0.21262 0.10051 0.0772199 0.212597 0.156973 0.0777996 0.211386 0.212668 
0.120407 -0.00990605 -0.00945206 0.115863 -0.00972097 0.0453422 0.113911 -0.00928036 0.100131 
0.115387 -0.00941807 0.154225 0.120041 -0.0105578 0.208747 0.115435 0.0455683 -0.0104875 
0.115405 0.044677 0.210408 0.113432 0.100331 -0.00976443 0.114397 0.0993923 0.209865 
0.114306 0.15492 -0.00950209 0.115174 0.15375 0.209919 0.120205 0.209252 -0.00884237 
0.116557 0.209452 0.0459213 0.11521 0.209427 0.100449 0.116025 0.209295 0.154679 
0.12036 0.208635 0.209395 0.155 0 0 0.155 0 0.05 
0.155 0 0.1 0.155 0 0.15 0.155 0 0.2 
0.155 0.05 0 0.155 0.05 0.05 0.155 0.05 0.1 
0.155 0.05 0.15 0.155 0.05 0.2 0.155 0.1 0 
0.155 0.1 0.05 0.155 0.1 0.1 0.155 0.1 0.15 
0.155 0.1 0.2 0.155 0.15 0 0.155 0.15 0.05 
0.155 0.15 0.1 0.155 0.15 0.15 0.155 0.15 0.2 
0.155 0.2 0 0.155 0.2 0.05 0.155 0.2 0.1 
0.155 0.2 0.15 0.155 0.2 0.2 0 0.025 0 
0.016436 -0.00516889 -0.00765244 0.0208126 -0.00690413 0.0204885 0 0 0.025 
0 0.025 0.025 0.021438 -0.00685302 0.0471746 0 0.025 0.05 
0 0.025 0.075 0 0 0.075 0 0.025 0.1 
0.0212718 -0.00711393 0.0736134 0.0216353 -0.0065333 0.100103 0.0214314 -0.00686296 0.126574 
0 0 0.125 0.02153 -0.00669492 0.152812 0 0.025 0.175 
0 0.025 0.15 0 0 0.175 0 0.025 0.125 
0.020865 -0.00699068 0.179409 0 0.025 0.2 0.0162522 -0.00532412 0.20762 
0.0217335 0.0203162 0.0208261 0 0.05 0.025 0.0183745 0.0214246 -0.00668088 
0.0200738 0.0476264 -0.00584438 0.021767 0.0749507 -0.00670532 0 0.075 0.025 
0 0.075 0 0.0218617 0.0204824 0.047455 0 0.05 0.075 
0 0.075 0.05 0.0431497 0.0730507 0.0177703 0.0224931 0.0744761 0.0203699 
0.0410993 0.0457942 0.0183213 0.0211917 0.0475309 0.020685 0.0421797 0.018337 0.0727165 
0.0411672 0.0187353 0.0454719 0 0.075 0.075 0.0441461 0.0729197 0.0447063 
0.0422015 0.0182665 0.0997722 0.0222655 0.020217 0.0737834 0.0224717 0.0205162 0.126451 
0.0435686 0.017485 0.127397 0.0222935 0.0202177 0.100108 0 0.05 0.125 
0 0.075 0.125 0 0.075 0.1 0 0.05 0.175 
0.0221291 0.0205468 0.15272 0.0222511 0.0739876 0.179772 0.0215233 0.0473001 0.179376 
0.0423339 0.0726029 0.181899 0 0.075 0.15 0.0414481 0.0454026 0.18164 
0.0428474 0.0178499 0.154685 0.0217695 0.0202305 0.179236 0.0215954 0.0744968 0.206937 
0.0203367 0.0473688 0.205946 0.0183963 0.0212701 0.206718 0 0.075 0.175 
0 0.075 0.2 0 0.125 0 0.0217242 0.100932 -0.00677147 
0 0.1 0.025 0.0440188 0.100434 0.0175644 0 0.125 0.025 
0 0.125 0.05 0.0227982 0.126795 0.0207106 0.0225879 0.100693 0.0206326 
0 0.1 0.075 0.0440152 0.127684 0.0177309 0 0.125 0.075 
0 0.1 0.125 0.0437454 0.155097 0.127592 0.0432423 0.127459 0.155064 
0.0427722 0.100004 0.155586 0.0433343 0.155315 0.100139 0.0440826 0.127764 0.0449535 
0.0438674 0.100409 0.0446587 0 0.125 0.1 0.0426969 0.0447492 0.0998737 
0.0436768 0.0446493 0.127463 0.0779224 0.100112 0.100084 0.0439066 0.155023 0.155031 
0.0428719 0.127346 0.181998 0 0.125 0.175 0 0.125 0.15 
0.0225877 0.126511 0.179691 0.0223628 0.100362 0.179697 0 0.1 0.175 
0 0.125 0.125 0.0424152 0.0998649 0.182016 0.0437001 0.0448416 0.154949 
0.0214691 0.100547 0.207188 0 0.125 0.2 0 0.15 0.025 
0.0217298 0.153012 -0.00564004 0.0190347 0.178441 -0.00624838 0.0218544 0.179311 0.0209859 
0.0217279 0.126961 -0.00628224 0 0.175 0.025 0 0.175 0 
0.0224151 0.152996 0.0210851 0.0218875 0.179437 0.0476527 0.0432112 0.155001 0.0183915 
0.0419777 0.18176 0.0458649 0 0.175 0.05 0 0.15 0.075 
0.0426781 0.181801 0.0730898 0.0223619 0.17965 0.0739467 0.0428621 0.181689 0.100176 
0.0224388 0.17956 0.100271 0 0.175 0.1 0.0225114 0.179434 0.126592 
0 0.175 0.075 0.0437191 0.182322 0.127651 0 0.15 0.125 
0 0.175 0.125 0.0439732 0.155022 0.0451849 0 0.15 0.175 
0.0223194 0.152733 0.179389 0.0221822 0.179223 0.152815 0.0427776 0.154486 0.181925 
0 0.175 0.15 0.0432806 0.182115 0.154851 0.0219271 0.179154 0.17935 
0.0215545 0.152714 0.2062 0.018857 0.178202 0.206608 0 0.175 0.175 
0.0214632 0.126673 0.206798 0 0.175 0.2 0.0166625 0.204975 -0.00731642 
0.0209601 0.206679 0.0208027 0 0.2 0.025 0.0214997 0.20677 0.0473474 
0 0.2 0.075 0.021812 0.20629 0.100305 0.0215588 0.206648 0.126727 
0.0213664 0.206894 0.0738581 0 0.2 0.125 0.0216661 0.206424 0.153064 
0 0.2 0.175 0.0211122 0.206446 0.179509 0.0165373 0.204758 0.207619 
0.0376934 -0.00871814 0.0179598 0.0561071 -0.0101727 -0.0101947 0.0574555 0.0168769 -0.0105395 
0.0380866 0.0185841 -0.00932771 0.0576274 -0.0101972 0.0167277 0.0590693 0.0169596 0.0165452 
0.0405202 0.0186988 0.0179321 0.0593621 -0.0104134 0.0718153 0.0592049 -0.010426 0.0440418 
0.0400485 -0.0087671 0.0725533 0.0599857 -0.0106407 0.0998396 0.04012 -0.00888434 0.127256 
0.059146 0.0163858 0.183537 0.0573078 -0.0108729 0.183267 0.0587079 -0.0111735 0.155533 
0.0598301 -0.0113773 0.127902 0.040623 0.0182623 0.182025 0.0375162 -0.0090493 0.181949 
0.057386 0.0163248 0.210555 0.0557593 -0.0108091 0.210181 0.0381058 0.0181498 0.209364 
0.0583067 0.0446017 -0.0108552 0.0401313 0.0731274 -0.00885918 0.040067 0.0726659 0.208917 
0.0584702 0.0441436 0.210901 0.0595883 0.0721312 -0.0110696 0.0601809 0.100208 -0.011046 
0.0410089 0.127798 -0.00873782 0.0601844 0.128227 -0.0113362 0.0405503 0.127206 0.209018 
0.0597522 0.0997241 0.210846 0.0593473 0.0717946 0.210908 0.0596429 0.12755 0.211064 
0.0391322 0.182339 -0.00897958 0.041557 0.181988 0.0184239 0.0597628 0.156561 -0.0107947 
0.0414008 0.181612 0.182097 0.0388199 0.181827 0.209531 0.0596179 0.155746 0.211142 
0.0377447 0.209 0.0185406 0.056265 0.211517 -0.00943131 0.0582406 0.18447 -0.0101132 
0.0597622 0.210603 0.0725416 0.0402638 0.208667 0.073046 0.0578915 0.211299 0.0174019 
0.0601969 0.184094 0.0169117 0.059257 0.211076 0.0447898 0.0606101 0.21063 0.100409 
0.0405248 0.208618 0.127617 0.0379154 0.208781 0.18212 0.0600904 0.183453 0.183835 
0.059257 0.210965 0.156114 0.0580173 0.21067 0.183698 0.0604246 0.21108 0.128288 
0.0562266 0.21055 0.210473 0.0580139 0.183496 0.210814 0.0774233 0.0158391 -0.0120766 
0.0779547 -0.0116038 0.015258 0.0990564 -0.0102528 -0.0107797 0.098073 -0.010433 0.0161773 
0.0780336 0.0154255 0.0151593 0.0969687 -0.0106935 0.0437605 0.0786457 -0.0126334 0.0712995 
0.0954886 0.0442697 0.0160439 0.0780503 0.0434516 0.0152961 0.077992 0.0434493 0.156357 
0.112244 0.0450674 0.127541 0.11224 0.0448658 0.10007 0.0949826 0.0443551 0.0438426 
0.0782188 0.0435042 0.0436932 0.0781882 -0.0132754 0.127896 0.0963904 -0.0109221 0.0717245 
0.0958897 -0.0114816 0.127649 0.0942588 0.0439205 0.156372 0.0954589 -0.0109005 0.0998763 
0.0771457 0.0150342 0.184897 0.077166 -0.0121957 0.184426 0.0778305 0.0434332 0.184977 
0.0955742 -0.0110571 0.155691 0.0948047 0.043555 0.184067 0.0772005 0.0151578 0.212354 
0.098666 -0.0112121 0.210048 0.0972541 -0.0109625 0.183118 0.0777116 0.0717609 -0.0128304 
0.097824 0.0166808 -0.010905 0.0968469 0.0167861 0.0160993 0.0969525 0.0442262 -0.0111614 
0.0954584 0.0719249 -0.0114291 0.0973454 0.0157986 0.210544 0.095878 0.0160896 0.183669 
0.0782487 0.0715203 0.213254 0.0958603 0.0713127 0.211806 0.0968855 0.0434188 0.211173 
0.112025 0.100003 0.044337 0.0949282 0.0999792 -0.0115113 0.0780295 0.128789 -0.0130422 
0.11227 0.127468 0.0446631 0.0948193 0.156557 0.0444481 0.0786619 0.156908 0.0440901 
0.111786 0.0992457 0.183014 0.111886 0.0994488 0.155798 0.111183 0.12698 0.155798 
0.0785667 0.156344 0.185072 0.078232 0.156077 0.156337 0.095321 0.15607 0.184175 
0.0944112 0.155925 0.156021 0.112095 0.126652 0.182912 0.095623 0.0993164 0.212072 
0.0787894 0.128293 0.213425 0.0778082 0.185439 -0.0122624 0.0781508 0.185575 0.0154473 
0.0960578 0.184348 0.0166211 0.0974139 0.184583 -0.0105754 0.0954381 0.156499 -0.011043 
0.113058 0.154947 0.0451927 0.0953102 0.184295 0.0442937 0.078668 0.185295 0.043691 
0.0952795 0.128398 -0.0110483 0.0777136 0.184306 0.185413 0.0777761 0.184402 0.213167 
0.0960151 0.183654 0.184142 0.0976758 0.183414 0.211184 0.113023 0.153876 0.182898 
0.0964721 0.15531 0.211816 0.0961347 0.127119 0.212146 0.0779144 0.212865 0.0159483 
0.0981314 0.211501 0.0169822 0.0992739 0.211717 -0.0098714 0.0790523 0.21312 0.0721897 
0.096737 0.2117 0.044367 0.0786879 0.212861 0.128732 0.114066 0.182371 0.1003 
0.0965833 0.211714 0.100517 0.113729 0.155406 0.100186 0.0961612 0.211246 0.128668 
0.0967322 0.211851 0.0722924 0.0776743 0.211856 0.1851 0.0956269 0.21067 0.156569 
0.0976782 0.210524 0.183835 0.0993834 0.210535 0.210688 0.117887 -0.00987494 0.0175194 
0.117182 0.0177307 -0.0103567 0.139187 -0.00527215 -0.00858901 0.136754 0.0211913 -0.00796087 
0.115217 0.01776 0.0172577 0.132966 0.0471318 0.0464294 0.133004 0.0197332 0.0734046 
0.132754 0.0468266 0.0733676 0.114098 0.0451784 0.0175389 0.134512 -0.0069225 0.0196797 
0.133706 0.0202632 0.0193803 0.11478 -0.00951445 0.0726997 0.133674 -0.00672585 0.0465714 
[...]
POINT_DATA 527
VECTORS displacement float
0 0 0
0 0 0
0 0 0
0 0 0
0 0 0
0 0 0
0 0 0
0 0 0
0 0 0
0 0 0
0 0 0
0 0 0
0 0 0
0 0 0
0 0 0
0 0 0
0 0 0
0 0 0
0 0 0
0 0 0
0 0 0
0 0 0
0 0 0
0 0 0
0 0 0
-0.0148616 -0.00878033 -0.00889176
-0.0103301 -0.00847411 -0.00453448
-0.00922135 -0.00883208 -9.6332e-05
-0.0100905 -0.00890276 0.00435832
-0.0152032 -0.0091778 0.00885858
-0.01068 -0.00400751 -0.0089024
-0.0104171 -0.00444497 0.00890748
-0.00919989 0.000428461 -0.00860816
-0.00972717 -0.000157107 0.00871385
-0.00873795 0.00515377 -0.00853333
-0.00904345 0.00459162 0.00902436
-0.0148254 0.00936297 -0.0083118
-0.010294 0.00861521 -0.00411323
-0.00885152 0.0086316 0.000333439
-0.00982055 0.00869477 0.00474703
-0.0149275 0.00902265 0.00893987
-0.0225581 -0.0110226 -0.0118671
-0.0216637 -0.0126007 -0.00686245
-0.0215441 -0.0124597 -0.000304089
-0.0231838 -0.0132231 0.0062183
-0.0228139 -0.0118313 0.0118234
-0.0228566 -0.00646936 -0.0126971
-0.0227368 -0.00682188 0.0131238
-0.0217996 0.000197443 -0.0127342
-0.0212921 -0.000109357 0.0131351
-0.0222338 0.00725115 -0.0134485
-0.0218294 0.00635908 0.0137341
-0.0223473 0.0125264 -0.0113969
-0.0220698 0.0133469 -0.00595686
-0.020587 0.0126204 0.000510343
-0.0227801 0.0125968 0.00697294
-0.0222004 0.0113855 0.0126676
-0.0295927 -0.00990605 -0.00945206
-0.0341366 -0.00972097 -0.00465775
-0.0360893 -0.00928036 0.000131471
-0.0346129 -0.00941807 0.00422474
-0.0299592 -0.0105578 0.00874674
-0.0345647 -0.00443174 -0.0104875
-0.0345955 -0.00532296 0.0104083
-0.0365683 0.000331199 -0.00976443
-0.0356032 -0.000607705 0.00986457
-0.0356936 0.00492039 -0.00950209
-0.0348256 0.00375027 0.00991863
-0.0297951 0.00925248 -0.00884237
-0.0334429 0.00945195 -0.00407874
-0.0347898 0.00942677 0.000448911
-0.0339749 0.00929492 0.00467916
-0.0296401 0.0086345 0.00939491
-0.045 0 0
-0.045 0 0
-0.045 0 0
-0.045 0 0
-0.045 0 0
-0.045 0 0
-0.045 0 0
-0.045 0 0
-0.045 0 0
-0.045 0 0
-0.045 0 0
-0.045 0 0
-0.045 0 0
-0.045 0 0
-0.045 0 0
-0.045 0 0
-0.045 0 0
-0.045 0 0
-0.045 0 0
-0.045 0 0
-0.045 0 0
-0.045 0 0
-0.045 0 0
-0.045 0 0
-0.045 0 0
0 0 0
-0.00856404 -0.00516889 -0.00765244
-0.00418743 -0.00690413 -0.0045115
0 0 0
0 0 0
-0.00356198 -0.00685302 -0.00282542
0 0 0
0 0 0
0 0 0
0 0 0
-0.00372822 -0.00711393 -0.00138658
-0.00336466 -0.0065333 0.000102687
-0.0035686 -0.00686296 0.00157446
0 0 0
-0.00347 -0.00669492 0.00281178
0 0 0
0 0 0
0 0 0
0 0 0
-0.00413504 -0.00699068 0.00440937
0 0 0
-0.0087478 -0.00532412 0.00761974
-0.00326648 -0.00468378 -0.00417392
0 0 0
-0.00662553 -0.0035754 -0.00668088
-0.00492621 -0.00237356 -0.00584438
-0.003233 -4.93097e-05 -0.00670532
0 0 0
0 0 0
-0.00313831 -0.00451761 -0.002545
0 0 0
0 0 0
-0.00685035 -0.00194934 -0.00722966
-0.00250688 -0.000523909 -0.00463013
-0.00890069 -0.0042058 -0.00667866
-0.00380833 -0.0024691 -0.00431502
-0.00782032 -0.00666298 -0.00228345
-0.0088328 -0.0062647 -0.00452809
0 0 0
-0.00585395 -0.00208026 -0.00529371
-0.00779853 -0.00673348 -0.000227818
-0.00273445 -0.00478304 -0.00121665
-0.00252829 -0.00448379 0.00145065
-0.00643142 -0.00751499 0.00239717
-0.00270654 -0.00478226 0.000107802
0 0 0
0 0 0
0 0 0
0 0 0
-0.00287089 -0.00445322 0.00272004
-0.0027489 -0.00101241 0.00477194
-0.00347669 -0.00269986 0.00437611
-0.00766612 -0.00239707 0.00689891
0 0 0
-0.00855186 -0.0045974 0.00663976
-0.00715264 -0.00715015 0.00468472
-0.00323053 -0.00476954 0.00423609
-0.00340464 -0.000503201 0.00693745
-0.00466332 -0.00263116 0.00594589
-0.00660367 -0.00372989 0.00671815
0 0 0
0 0 0
0 0 0
-0.00327584 0.000932218 -0.00677147
0 0 0
-0.00598124 0.000434371 -0.00743558
0 0 0
0 0 0
-0.00220183 0.00179465 -0.0042894
-0.0024121 0.000692756 -0.00436743
0 0 0
-0.0059848 0.00268411 -0.00726906
0 0 0
0 0 0
-0.00625464 0.00509736 0.00259203
-0.00675771 0.00245919 0.00506375
-0.00722782 3.64296e-06 0.00558619
-0.00666569 0.00531503 0.000139422
-0.00591737 0.00276395 -0.00504654
-0.00613262 0.000408599 -0.00534129
0 0 0
-0.0073031 -0.00525082 -0.000126332
-0.00632323 -0.00535066 0.00246345
-0.0220776 0.00011241 8.41323e-05
-0.00609341 0.00502307 0.00503096
-0.00712815 0.0023463 0.00699751
0 0 0
0 0 0
-0.00241234 0.00151107 0.00469098
-0.00263718 0.000362304 0.00469707
0 0 0
0 0 0
-0.00758479 -0.000135142 0.00701555
-0.0062999 -0.00515842 0.00494893
-0.00353089 0.000546907 0.00718773
0 0 0
0 0 0
-0.00327015 0.0030122 -0.00564004
-0.00596525 0.00344091 -0.00624838
-0.00314557 0.00431057 -0.00401405
-0.00327209 0.0019615 -0.00628224
0 0 0
0 0 0
-0.00258486 0.00299577 -0.00391492
-0.00311254 0.00443715 -0.00234732
-0.00678878 0.0050014 -0.00660854
-0.00802227 0.00676039 -0.00413511
0 0 0
0 0 0
-0.00732192 0.00680125 -0.0019102
-0.00263807 0.00465046 -0.00105334
-0.00713791 0.00668884 0.000176413
-0.00256121 0.00456009 0.000270985
0 0 0
-0.00248857 0.00443444 0.00159245
0 0 0
-0.00628089 0.0073221 0.00265083
0 0 0
0 0 0
-0.0060268 0.00502243 -0.00481509
0 0 0
-0.00268063 0.00273267 0.00438901
-0.00281783 0.00422341 0.00281482
-0.00722238 0.00448587 0.00692481
0 0 0
-0.00671944 0.00711518 0.00485068
-0.00307285 0.00415413 0.00435012
-0.00344547 0.00271369 0.00619967
-0.00614301 0.00320228 0.00660785
0 0 0
-0.00353682 0.00167252 0.0067982
0 0 0
-0.00833748 0.00497547 -0.00731642
-0.00403994 0.00667936 -0.0041973
0 0 0
-0.0035003 0.00676999 -0.00265264
0 0 0
-0.00318805 0.0062898 0.000305332
-0.00344122 0.00664842 0.00172735
-0.00363361 0.00689392 -0.00114187
0 0 0
-0.00333391 0.00642395 0.0030643
0 0 0
-0.00388783 0.00644559 0.0045093
-0.00846268 0.00475805 0.00761878
-0.0123066 -0.00871814 -0.00704019
-0.0188929 -0.0101727 -0.0101947
-0.0175445 -0.0081231 -0.0105395
-0.0119134 -0.00641594 -0.00932771
-0.0173726 -0.0101972 -0.00827226
-0.0159307 -0.00804036 -0.00845478
-0.00947977 -0.00630121 -0.00706787
-0.0156379 -0.0104134 -0.0031847
-0.0157952 -0.010426 -0.00595815
-0.00995155 -0.0087671 -0.00244669
-0.0150143 -0.0106407 -0.000160444
-0.00987996 -0.00888434 0.00225639
-0.015854 -0.00861423 0.00853715
-0.0176922 -0.0108729 0.00826741
-0.0162921 -0.0111735 0.00553265
-0.0151699 -0.0113773 0.0029017
-0.00937704 -0.00673769 0.00702519
-0.0124838 -0.0090493 0.00694856
-0.017614 -0.00867517 0.0105549
-0.0192407 -0.0108091 0.0101813
-0.0118942 -0.00685016 0.00936371
-0.0166933 -0.00539832 -0.0108552
-0.00986872 -0.00187262 -0.00885918
-0.00993297 -0.00233414 0.00891737
-0.0165298 -0.00585641 0.010901
-0.0154117 -0.00286878 -0.0110696
-0.0148191 0.000207851 -0.011046
-0.00899106 0.00279836 -0.00873782
-0.0148156 0.00322659 -0.0113362
-0.0094497 0.00220647 0.00901791
-0.0152478 -0.000275934 0.0108463
-0.0156527 -0.0032054 0.010908
-0.0153571 0.00255026 0.0110635
-0.0108678 0.0073392 -0.00897958
-0.00844302 0.00698798 -0.00657606
-0.0152372 0.0065613 -0.0107947
-0.00859918 0.00661215 0.00709714
-0.0111801 0.00682708 0.00953126
-0.0153821 0.00574604 0.0111423
-0.0122553 0.00900021 -0.00645937
-0.018735 0.0115166 -0.00943131
-0.0167594 0.00947003 -0.0101132
-0.0152378 0.0106025 -0.00245837
-0.0097362 0.00866728 -0.00195404
-0.0171085 0.0112994 -0.00759814
-0.0148031 0.00909427 -0.00808829
-0.015743 0.0110758 -0.00521019
-0.0143899 0.0106297 0.000408934
-0.00947521 0.00861809 0.00261651
-0.0120846 0.00878134 0.00711963
-0.0149096 0.00845298 0.00883532
-0.015743 0.0109654 0.00611448
-0.0169827 0.0106697 0.0086978
-0.0145754 0.01108 0.00328759
-0.0187734 0.0105503 0.0104734
-0.0169861 0.00849598 0.0108137
-0.0225767 -0.00916095 -0.0120766
-0.0220453 -0.0116038 -0.00974202
-0.0259436 -0.0102528 -0.0107797
-0.026927 -0.010433 -0.00882274
-0.0219664 -0.00957446 -0.00984074
-0.0280313 -0.0106935 -0.00623948
-0.0213543 -0.0126334 -0.00370047
-0.0295114 -0.00573035 -0.00895608
-0.0219497 -0.00654843 -0.00970393
-0.022008 -0.0065507 0.00635746
-0.0377561 -0.00493262 0.00254148
-0.0377599 -0.00513424 7.01302e-05
-0.0300174 -0.00564489 -0.00615737
-0.0217812 -0.00649582 -0.00630681
-0.0218118 -0.0132754 0.00289581
-0.0286096 -0.0109221 -0.00327555
-0.0291103 -0.0114816 0.0026489
-0.0307412 -0.00607945 0.00637245
-0.0295411 -0.0109005 -0.000123659
-0.0228543 -0.00996578 0.00989673
-0.022834 -0.0121957 0.00942612
-0.0221695 -0.00656677 0.00997669
-0.0294258 -0.0110571 0.00569117
-0.0301953 -0.006445 0.00906696
-0.0227995 -0.0098422 0.0123543
-0.026334 -0.0112121 0.0100477
-0.0277459 -0.0109625 0.00811823
-0.0222884 -0.00323909 -0.0128304
-0.027176 -0.00831924 -0.010905
-0.0281531 -0.00821393 -0.00890065
-0.0280475 -0.00577383 -0.0111614
-0.0295416 -0.00307511 -0.0114291
-0.0276546 -0.00920141 0.0105444
-0.029122 -0.00891035 0.0086694
-0.0217513 -0.00347967 0.0132539
-0.0291396 -0.00368727 0.011806
-0.0281145 -0.00658124 0.0111735
-0.0379746 2.77181e-06 -0.00566297
-0.0300717 -2.08133e-05 -0.0115113
-0.0219705 0.00378914 -0.0130422
-0.0377296 0.00246773 -0.00533685
-0.0301807 0.00655702 -0.00555192
-0.021338 0.00690848 -0.00590989
-0.038214 -0.000754343 0.0080142
-0.0381135 -0.000551159 0.00579775
-0.0388171 0.00197952 0.00579787
-0.0214333 0.0063441 0.0100717
-0.021768 0.00607679 0.00633705
-0.029679 0.00606972 0.00917538
-0.0305888 0.00592536 0.00602148
-0.0379047 0.00165202 0.00791169
-0.029377 -0.000683561 0.0120715
-0.0212106 0.0032934 0.0134248
-0.0221918 0.0104394 -0.0122624
-0.0218492 0.0105747 -0.00955267
-0.0289422 0.00934767 -0.00837889
-0.0275862 0.00958318 -0.0105754
-0.0295619 0.00649901 -0.011043
-0.036942 0.00494729 -0.0048073
-0.0296898 0.00929484 -0.00570634
-0.021332 0.0102953 -0.00630898
-0.0297205 0.00339779 -0.0110483
-0.0222864 0.00930583 0.0104132
-0.0222238 0.00940151 0.0131665
-0.0289849 0.00865411 0.00914201
-0.0273242 0.00841406 0.011184
-0.0369774 0.00387631 0.00789834
-0.0285279 0.00530981 0.0118156
-0.0288653 0.00211859 0.0121461
-0.0220856 0.012865 -0.00905174
-0.0268686 0.0115011 -0.00801785
-0.0257261 0.011717 -0.0098714
-0.0209477 0.0131197 -0.00281029
-0.028263 0.0117003 -0.00563295
-0.0213121 0.0128608 0.00373232
-0.0359336 0.00737112 0.000300104
-0.0284167 0.0117139 0.000517342
-0.0362707 0.00540638 0.000185625
-0.0288388 0.0112462 0.00366833
-0.0282678 0.0118507 -0.00270765
-0.0223257 0.0118559 0.0101005
-0.0293731 0.0106701 0.00656881
-0.0273218 0.0105237 0.00883517
-0.0256166 0.0105355 0.0106878
-0.0321129 -0.00987494 -0.0074806
-0.0328176 -0.00726931 -0.0103567
-0.0358126 -0.00527215 -0.00858901
-0.0382456 -0.00380874 -0.00796087
-0.0347829 -0.00724004 -0.00774227
-0.0420336 -0.00286825 -0.00357061
-0.0419963 -0.00526679 -0.00159543
-0.0422464 -0.00317342 -0.00163236
-0.0359019 -0.00482157 -0.00746112
-0.0404876 -0.0069225 -0.00532029
-0.0412939 -0.00473684 -0.00561975
-0.0352198 -0.00951445 -0.00230029
-0.0413257 -0.00672585 -0.00342857
-0.0417427 -0.00476921 -0.00361723
-0.0411804 -0.0073504 -0.00163205
-0.042164 -0.00546287 -7.06088e-05
-0.035444 -0.00949051 0.00245358
-0.0427038 -0.0042534 0.00141653
-0.0425592 -0.00384505 4.11632e-05
-0.0367993 -0.00483542 -0.00498915
-0.0414728 -0.00691315 1.73821e-05
-0.0420447 -0.00546434 0.00139363
-0.0422684 -0.00297718 0.00322749
-0.0324641 -0.0100597 0.00686705
-0.0414745 -0.00668635 0.00306885
-0.0419153 -0.00474017 0.00325475
-0.0353248 -0.00769461 0.00749647
-0.0414401 -0.00493549 0.00515514
-0.0406298 -0.00713374 0.00481715
-0.0363612 -0.00553806 0.00745369
-0.041111 -0.00764289 0.00147237
-0.0331836 -0.00810015 0.0100195
-0.0384645 -0.00422438 0.00744519
-0.0360618 -0.00563703 0.0080437
-0.0355453 -0.00191761 -0.010101
-0.0409203 -0.0028576 -0.00730187
-0.0419839 -0.00134019 -0.00542686
-0.0418144 -0.00312211 -0.00547197
-0.0409894 -0.00335547 0.00681622
-0.042154 -0.00181485 0.0049891
-0.041995 -0.00346931 0.00500223
-0.0351606 -0.00285601 0.0101548
-0.0425785 0.000193668 -0.00392502
-0.0427052 0.00151387 -0.00448878
-0.0415078 -0.00141542 -0.00749896
-0.0424729 -0.000113255 -0.00556617
-0.0417447 -0.000216085 -0.0075438
-0.036092 0.00282697 -0.00961129
-0.0422352 0.00139565 -0.00593377
-0.0417509 0.000875375 -0.00750316
-0.041667 -0.00011056 0.00723123
-0.0424244 0.000613334 0.00508172
-0.0423144 -0.000470043 0.0049161
-0.0414856 -0.00196172 0.00708128
-0.0415635 -0.000984676 0.0074387
-0.0350961 0.00159907 0.00997559
-0.0335491 0.00718594 -0.00939772
-0.0353404 0.00715679 -0.00718237
-0.0419368 0.0031532 -0.00379618
-0.0361383 0.00730341 -0.00469505
-0.0406352 0.0029181 -0.00685284
-0.0415653 0.00312122 -0.00546725
-0.04052 0.00188727 0.00675682
-0.0331777 0.00635224 0.00989517
-0.0355816 0.00645505 0.00765253
-0.0418022 0.00211138 0.00518813
-0.0319099 0.0091842 -0.00680651
-0.0360156 0.00553743 -0.00844907
-0.0383345 0.00402677 -0.00773879
-0.0401962 0.00727415 -0.0052223
-0.041119 0.00496778 -0.00535555
-0.0409316 0.00736054 -0.00321854
-0.0417922 0.00498191 -0.00201037
-0.0410542 0.00728489 -0.00141064
-0.0344907 0.00947654 -0.00187842
-0.0415481 0.00490075 -0.00366826
-0.0347623 0.00938001 0.00256879
-0.0409895 0.00451523 0.000185938
-0.041094 0.00645312 0.000329051
-0.0416367 0.00407282 0.0049938
-0.0413535 0.0065479 0.00342506
-0.0417573 0.00386516 0.00366324
-0.0420726 0.00367367 0.00227496
-0.0320342 0.00865415 0.00740517
-0.0406573 0.00641775 0.00518709
-0.0415736 0.00619141 0.00198127
-0.0383778 0.00300744 0.00743407
-0.0361477 0.00462954 0.00839154
-0.045 0 0
-0.045 0 0
-0.045 0 0
-0.045 0 0
-0.045 0 0
-0.045 0 0
-0.045 0 0
-0.045 0 0
-0.045 0 0
-0.045 0 0
-0.045 0 0
-0.045 0 0
-0.045 0 0
-0.045 0 0
-0.045 0 0
-0.045 0 0
-0.045 0 0
-0.045 0 0
-0.045 0 0
-0.045 0 0
-0.045 0 0
-0.045 0 0
-0.045 0 0
-0.045 0 0
-0.045 0 0
-0.045 0 0
-0.045 0 0
-0.045 0 0
-0.045 0 0
-0.045 0 0
-0.045 0 0
-0.045 0 0
-0.045 0 0
-0.045 0 0
-0.045 0 0
-0.045 0 0
-0.045 0 0
-0.045 0 0
-0.045 0 0
-0.045 0 0
-0.045 0 0
-0.045 0 0
-0.045 0 0
-0.045 0 0
-0.045 0 0
-0.045 0 0
-0.045 0 0
-0.045 0 0
-0.045 0 0
-0.045 0 0
-0.045 0 0
-0.045 0 0
-0.045 0 0
-0.045 0 0
-0.045 0 0
-0.045 0 0

CELL_DATA 236
TENSORS stress float
-9532.28 229.903 -689.083
229.903 -2328.59 513.497
-689.083 513.497 475.64

-9085.36 77.1306 25.1974
77.1306 -1557.85 608.614
25.1974 608.614 -634.1

-11740.2 -1462.05 1265.4
-1462.05 -7435.86 -1650.66
1265.4 -1650.66 -8327.65

-6986.42 83.5122 -912.857
83.5122 173.31 587.604
-912.857 587.604 770.659

-10386.3 -1567 -1269.09
-1567 -4654.67 1170.38
-1269.09 1170.38 -6184.88

-12773.3 601.499 -826.465
601.499 -10075.4 -546.621
-826.465 -546.621 -9169.14

-14268.4 220.643 19.2265
220.643 -9098.76 -138.496
19.2265 -138.496 -9463.81

-8134.35 -379.333 197.429
-379.333 -456.225 -124.31
197.429 -124.31 -266.164

-9608.37 512.387 479.693
512.387 -1956.61 -17.9102
479.693 -17.9102 -2415.4

-18265.7 -324.634 34.3879
-324.634 -15162.6 -42.7733
34.3879 -42.7733 -15305.5

-7551.95 -629.037 349.169
-629.037 1023.45 236.444
349.169 236.444 452.488

-9044.6 -335.702 -2154.01
-335.702 -6707.8 -121.2
-2154.01 -121.2 -4126.13

-7468.2 478.41 -1783.57
478.41 -1837.06 -489.374
-1783.57 -489.374 850.623

-9633.48 126.256 832.377
126.256 -2435.37 -206.842
832.377 -206.842 170.851

-7783.43 489.444 759.182
489.444 1826.02 -170.323
759.182 -170.323 -436.154

-7621.52 -740.04 -561.991
-740.04 2737.18 -126.785
-561.991 -126.785 2018.1

-7669.54 299.692 347.895
299.692 642.576 -193.877
347.895 -193.877 398.783

-8553.57 925.147 233.38
925.147 -646.168 309.43
233.38 309.43 -2940.82

-10113.3 421.616 334.962
421.616 -1697.4 392.349
334.962 392.349 -1370.71

-8914.8 -1158.9 -942.31
-1158.9 -1800.97 497.515
-942.31 497.515 -2612.88

-7767.55 473.184 728.139
473.184 2337.26 76.3277
728.139 76.3277 1287.45

-13048.7 451.265 -869.762
451.265 -11422.9 -274.593
-869.762 -274.593 -10471.9

-11838.4 242.224 -1630.23
242.224 -9937.54 -515.595
-1630.23 -515.595 -6386.85

-8476.23 -318.657 248.59
-318.657 -3192.44 -325.728
248.59 -325.728 -674.261

-8507.46 -199.003 47.3926
-199.003 92.798 -431.74
47.3926 -431.74 176.781

-11773 -1489.63 -1121.03
-1489.63 -7413.8 1544.78
-1121.03 1544.78 -8898.82

-7938.54 -163.096 -103.552
-163.096 1259.32 502.007
-103.552 502.007 2001.39

-10900.7 330.134 -364.455
330.134 -5249.04 610.379
-364.455 610.379 -5787.56

-8339.72 -63.1943 -241.365
-63.1943 -725.907 -563.552
-241.365 -563.552 -1190.85

-10304.2 -1566.08 -1694.59
-1566.08 -5628.49 994.139
-1694.59 994.139 -6899.78

-9668.9 -93.5389 -285.685
-93.5389 -1909.01 -279.071
-285.685 -279.071 -2747.66

-7686 -320.444 -170.497
-320.444 1637.4 385.285
-170.497 385.285 1277.61

-10010.3 424.14 -1824.98
424.14 -7757.73 -312.937
-1824.98 -312.937 -4773.48

-9928.72 -236.238 -271.685
-236.238 -2842.46 -556.009
-271.685 -556.009 -2444.29

-8943.68 -1913.86 1468.91
-1913.86 -3498.27 -1191.47
1468.91 -1191.47 -4953.71

-7404.77 842.434 -513.68
842.434 3054.95 273.195
-513.68 273.195 2037.77

-9458.25 -12.654 -255.108
-12.654 -914.906 -75.3842
-255.108 -75.3842 -959.22

-6794.23 656.399 715.881
656.399 -392.971 -420.259
715.881 -420.259 2238.08

-8535.86 341.956 459.546
341.956 -1958.29 -101.425
459.546 -101.425 -78.0978

-7434.93 384.261 247.623
384.261 756.878 -504.904
247.623 -504.904 594.679

-8016.81 -141.951 -401.269
-141.951 828.336 -335.275
-401.269 -335.275 835.211

-9311.54 -38.2144 -559.566
-38.2144 -2120.1 -660.491
-559.566 -660.491 -1996.18

-8613.4 -338.407 -218.058
-338.407 -3308.57 156.338
-218.058 156.338 -756.048

-6469.48 301.203 -1081.71
301.203 1281.19 281.805
-1081.71 281.805 1169.14

-9979.63 1556.72 -1279.38
1556.72 -3996.95 -928.215
-1279.38 -928.215 -5437.68

-12130.5 -1408.76 1025.73
-1408.76 -7859.72 -1562.32
1025.73 -1562.32 -9421.43

-9320.19 913.011 654.57
913.011 -4975.58 -8.60693
654.57 -8.60693 -5271.44

-9635.3 -111.776 742.066
-111.776 -2210.99 91.5109
742.066 91.5109 -280

-11756.9 1408.36 -1047.47
1408.36 -7194.78 -1234.07
-1047.47 -1234.07 -8898.9

-14019.6 328.006 727.789
328.006 -12606.9 269.994
727.789 269.994 -11412.7

-8108.33 393.137 465.75
393.137 -592.544 575.701
465.75 575.701 -482.526

-6009.89 1401.36 -1738.56
1401.36 -188.044 -633.469
-1738.56 -633.469 748.639

-8614.61 1784.87 1578.84
1784.87 -3042.07 1007.14
1578.84 1007.14 -4187.95

-8544.8 -191.711 -2085.27
-191.711 -6323.63 3.86792
-2085.27 3.86792 -4221.91

-9828.85 131.204 -2042.89
131.204 -7827.32 -293.786
-2042.89 -293.786 -4568.84

-10782.4 256.151 1737.05
256.151 -8661.87 267.239
1737.05 267.239 -5356.9

-7726.75 -200.099 65.429
-200.099 842.198 -491.016
65.429 -491.016 1340.53

-9689.02 -106.834 -785.648
-106.834 -2416.29 -185.439
-785.648 -185.439 -244.089

-8571.18 -214.197 317.728
-214.197 -178.442 57.9826
317.728 57.9826 -908.912

-12262.8 1535.41 -370.191
1535.41 -8999.04 -442.594
-370.191 -442.594 -10936

-9455.54 2266.3 -506.362
2266.3 -4477.13 -371.026
-506.362 -371.026 -7153.13

-10251.6 -78.0574 47.011
-78.0574 -3213.37 11.4424
47.011 11.4424 -3611.51

-10014.7 -2192.39 -566.029
-2192.39 -4942.26 417.381
-566.029 417.381 -7871.88

-8367.1 727.444 634.687
727.444 -1779.84 343.632
634.687 343.632 -516.567

-7718.73 575.04 1126.16
575.04 -2515.01 145.458
1126.16 145.458 388.507

-9036.54 -793.235 -145.262
-793.235 -1075.01 386.666
-145.262 386.666 -3501.91

-9472.17 -367.389 521.901
-367.389 -2948.62 692.484
521.901 692.484 -2202.55

-8772.05 -488.558 327.62
-488.558 -2161.77 -273.021
327.62 -273.021 -926.026

-9449.58 2182.33 736.796
2182.33 -4725.52 507.325
736.796 507.325 -7218.42

-9406.7 1964.8 861.695
1964.8 -5638.26 579.979
861.695 579.979 -7389.8

-8524.56 305.256 4.12024
305.256 -524.518 -35.0449
4.12024 -35.0449 -568.322

-7262.55 716.471 -1158.56
716.471 -2000.77 -120.593
-1158.56 -120.593 550.485

-6803.57 1211.33 1662.36
1211.33 -973.464 544.353
1662.36 544.353 73.2146

-11973.7 1348.49 1106.94
1348.49 -7711.33 1308.69
1106.94 1308.69 -9123.02

-9168.66 -1023.45 807.016
-1023.45 -2378.11 -652.19
807.016 -652.19 -2932.61

-9673.17 121.393 -907.272
121.393 -2536.62 252.155
-907.272 252.155 127.846

-9494.14 -68.0373 -252.731
-68.0373 -3756.37 -1426.7
-252.731 -1426.7 -2289.01

-11406.1 -1256.28 -850.843
-1256.28 -6237.47 590.881
-850.843 590.881 -8082.85

-14598.5 359.247 323.88
359.247 -10714.7 119.911
323.88 119.911 -10576.4

-9358.35 -605.413 -841.923
-605.413 -2667.47 370.652
-841.923 370.652 -2987.22

-8925.94 249.409 506.82